LAMMPS Description

     9708  atoms
     9400  bonds
     18600  angles
     29000  dihedrals
     500  impropers

     12  atom types
     12  bond types
     25  angle types
     35  dihedral types
     1  improper types

  0.0 110.00 xlo xhi
  0.0 110.00 ylo yhi
  0.0 80.00 zlo zhi

Masses

	1      1.008  # HRA2
    2      1.008  # HGA1
    3      1.008  # HGA2
    4      1.008  # HGA3
    5     12.011  # CG2R53
    6     12.011  # CG311
	7     12.011  # CG321
	8     12.011  # CG331
    9     12.011  # CG3C52
    10    14.007  # NG2R53
	11   15.9994  # OG2D1
    12 107.8682  # Ag

Bond Coeffs

    1   13.00902   1.530   # CG2R53   CG3C52 
    2   19.94716   1.380   # CG2R53   NG2R53 
	3   24.71714   1.235   # CG2R53   OG2D1  
	4   9.64836    1.538   # CG311    CG321  
	5   9.64836    1.538   # CG311    CG331  
    6   13.39929   1.111   # CG311    HGA1 
	7   13.87629   1.430   # CG311    NG2R53 
	8   13.39929   1.111   # CG321    HGA2 
	9   13.96301   1.111   # CG331    HGA3 
	10  8.45586    1.530   # CG3C52   CG3C52 
	11  13.31256   1.100   # CG3C52   HRA2 
	12  16.04446   1.450   # CG3C52   NG2R53 

Angle Coeffs

    1   3.03544	106.5  0.00000	0.000    # CG2R53   CG3C52   CG3C52
    2   2.51508	111.0  0.00000	0.000    # CG2R53   CG3C52   HRA2
	3   2.16817	120.0  0.00000	0.000    # CG2R53   NG2R53   CG311 
	4   3.25226	111.0  0.00000	0.000    # CG2R53   NG2R53   CG3C52
	5   2.53025	113.5  0.48394	2.561    # CG311    CG321    CG311 
	6   1.44964	110.1  0.97698	2.179    # CG311    CG321    HGA2
    7   1.44964	110.1  0.97698	2.179    # CG311    CG331    HGA3
	8   2.16817	116.0  0.00000	0.000    # CG311    NG2R53   CG3C52
	9   2.53025	113.5  0.48394	2.561    # CG321    CG311    CG321 
	10  2.31344	114.0  0.34691	2.561    # CG321    CG311    CG331 
	11  1.49604	110.1  0.97698	2.179    # CG321    CG311    HGA1
    12  3.03544	113.5  0.00000	0.000    # CG321    CG311    NG2R53
	13  1.49604	110.1  0.97698	2.179    # CG331    CG311    HGA1
    14  3.03544	113.5  0.00000	0.000    # CG331    CG311    NG2R53
	15  5.20361	105.5  0.00000	0.000    # CG3C52   CG2R53   NG2R53
	16  2.81862	126.7  0.00000	0.000    # CG3C52   CG2R53   OG2D1 
    17  2.51508	109.5  0.48394	2.561    # CG3C52   CG3C52   CG3C52
	18  1.51772	111.4  0.97698	2.179    # CG3C52   CG3C52   HRA2
	19  3.90271	104.5  0.00000	0.000    # CG3C52   CG3C52   NG2R53
	20  2.08144	108.0  0.00000	0.000    # HGA1 CG311    NG2R53  
	21  1.53940	109.0  0.23416	1.802    # HGA2 CG321    HGA2
    22  1.53940	108.4  0.23416	1.802    # HGA3 CG331    HGA3
	23  1.66949	106.8  0.23416	1.802    # HRA2 CG3C52   HRA2
    24  2.55844	111.0  0.00000	0.000    # HRA2 CG3C52   NG2R53  
	25  2.81862	127.8  0.00000	0.000    # NG2R53   CG2R53   OG2D1 

Dihedral Coeffs

    1   0.01474	3	180	 0   # CG2R53   CG3C52   CG3C52   CG3C52  
    2   0.00000	3	0    1   # CG2R53   CG3C52   CG3C52   HRA2  
	3   0.03903	1	0    1   # CG2R53   NG2R53   CG311    CG321   
	4   0.03903	1	0    1   # CG2R53   NG2R53   CG311    CG331   
	5   0.00000	1	0    1   # CG2R53   NG2R53   CG311    HGA1  
	6   0.10017	3	180	 0   # CG2R53   NG2R53   CG3C52   CG3C52  
    7   0.00000	3	0    1   # CG2R53   NG2R53   CG3C52   HRA2  
	8   0.00867	3	0    1   # CG311    CG321    CG311    CG321   
	9   0.00867	3	0    1   # CG311    CG321    CG311    CG331   
	10  0.00846	3	0    1   # CG311    CG321    CG311    HGA1  
	11  0.00867	3	0    1   # CG311    CG321    CG311    NG2R53  
    12  0.04857	2	180	 1   # CG311    NG2R53   CG2R53   CG3C52  
	13  0.10841	2	180	 1   # CG311    NG2R53   CG2R53   OG2D1   
	14  0.02905	3	0    1   # CG311    NG2R53   CG3C52   CG3C52  
	15  0.00000	3	0    1   # CG311    NG2R53   CG3C52   HRA2  
	16  0.00867	3	0    1   # CG321    CG311    CG321    HGA2  
    17  0.00867	3	0    1   # CG321    CG311    CG331    HGA3  
	18  0.00000	1	0    1   # CG321    CG311    NG2R53   CG3C52  
    19  0.00867	3	0    1   # CG331    CG311    CG321    HGA2  
	20  0.00000	1	0    1   # CG331    CG311    NG2R53   CG3C52  
	21  0.01735	2	180	 0   # CG3C52   CG2R53   NG2R53   CG3C52  
    22  0.04553	3	180	 0   # CG3C52   CG3C52   CG2R53   NG2R53  
	23  0.00347	3	0    1   # CG3C52   CG3C52   CG2R53   OG2D1   
	24  0.00824	3	0    1   # CG3C52   CG3C52   CG3C52   HRA2  
	25  0.09236	3	0    0   # CG3C52   CG3C52   CG3C52   NG2R53  
	26  0.11231	2	180	 1   # CG3C52   NG2R53   CG2R53   OG2D1   
    27  0.00000	1	0    1   # CG3C52   NG2R53   CG311    HGA1  
	28  0.00846	3	0    1   # HGA1 CG311    CG321    HGA2  
	29  0.00846	3	0    1   # HGA1 CG311    CG331    HGA3  
	30  0.00867	3	0    1   # HGA2 CG321    CG311    NG2R53    
	31  0.00867	3	0    1   # HGA3 CG331    CG311    NG2R53    
    32  0.00000	3	180	 1   # HRA2 CG3C52   CG2R53   NG2R53    
	33  0.00000	3	0  	 1   # HRA2 CG3C52   CG2R53   OG2D1     
	34  0.00824	3	0  	 1   # HRA2 CG3C52   CG3C52   HRA2  
	35  0.00000	3	180	 1   # HRA2 CG3C52   CG3C52   NG2R53    

Improper Coeffs

	1   3.90271	0.00000	 # CG2R53   CG3C52   NG2R53   OG2D1

Atoms

1 1 8 -0.273 11.691 9.564 11.863 # CG331
2 1 4 0.09 11.483 8.523 12.194 # HGA3
3 1 4 0.09 11.684 10.141 12.811 # HGA3
4 1 4 0.09 12.681 9.6 11.365 # HGA3
5 1 6 0.026 10.584 10.077 10.931 # CG311
6 1 2 0.09 9.643 9.726 11.424 # HGA1
7 1 7 -0.186 10.528 11.636 11.015 # CG321
8 1 3 0.09 10.368 11.963 12.07 # HGA2
9 1 3 0.09 9.533 11.809 10.63 # HGA2
10 1 10 -0.399 10.654 9.552 9.5 # NG2R53
11 1 5 0.371 9.28 9.498 8.902 # CG2R53
12 1 11 -0.49 8.625 10.626 8.933 # OG2D1
13 1 9 -0.011 8.494 8.341 9.493 # CG3C52
14 1 1 0.09 7.906 8.647 10.394 # HRA2
15 1 1 0.09 7.805 7.918 8.73 # HRA2
16 1 9 -0.188 9.579 7.357 9.867 # CG3C52
17 1 1 0.09 9.473 6.408 9.286 # HRA2
18 1 1 0.09 9.536 7.132 10.959 # HRA2
19 1 9 0.067 10.889 8.074 9.516 # CG3C52
20 1 1 0.09 11.738 7.742 10.148 # HRA2
21 1 1 0.09 11.186 7.761 8.485 # HRA2
22 1 6 0.026 11.53 12.594 10.213 # CG311
23 1 2 0.09 12.233 11.954 9.624 # HGA1
24 1 7 -0.186 10.652 13.456 9.209 # CG321
25 1 3 0.09 10.188 12.726 8.502 # HGA2
26 1 3 0.09 11.222 14.131 8.543 # HGA2
27 1 10 -0.399 12.294 13.588 11.082 # NG2R53
28 1 5 0.371 13.552 14.027 10.395 # CG2R53
29 1 11 -0.49 13.407 14.319 9.133 # OG2D1
30 1 9 -0.011 14.641 13.001 10.592 # CG3C52
31 1 1 0.09 14.668 12.276 9.742 # HRA2
32 1 1 0.09 15.619 13.519 10.698 # HRA2
33 1 9 -0.188 14.25 12.307 11.863 # CG3C52
34 1 1 0.09 14.138 11.222 11.677 # HRA2
35 1 1 0.09 15.006 12.462 12.665 # HRA2
36 1 9 0.067 12.926 12.939 12.263 # CG3C52
37 1 1 0.09 12.294 12.248 12.83 # HRA2
38 1 1 0.09 13.142 13.748 12.999 # HRA2
39 1 6 0.026 9.51 14.267 9.91 # CG311
40 1 2 0.09 9.589 13.913 10.965 # HGA1
41 1 7 -0.186 9.761 15.79 10.271 # CG321
42 1 3 0.09 10.685 15.719 10.854 # HGA2
43 1 3 0.09 9.034 16.036 11.081 # HGA2
44 1 10 -0.399 8.183 13.758 9.392 # NG2R53
45 1 5 0.371 7.382 14.811 8.751 # CG2R53
46 1 11 -0.49 7.283 14.546 7.475 # OG2D1
47 1 9 -0.011 5.982 14.795 9.383 # CG3C52
48 1 1 0.09 5.913 15.615 10.134 # HRA2
49 1 1 0.09 5.145 14.888 8.647 # HRA2
50 1 9 -0.188 5.918 13.506 10.116 # CG3C52
51 1 1 0.09 5.228 13.532 10.986 # HRA2
52 1 1 0.09 5.633 12.691 9.413 # HRA2
53 1 9 0.067 7.338 13.345 10.545 # CG3C52
54 1 1 0.09 7.517 13.97 11.46 # HRA2
55 1 1 0.09 7.501 12.278 10.782 # HRA2
56 1 6 0.026 9.85 17.055 9.287 # CG311
57 1 2 0.09 10.001 16.714 8.228 # HGA1
58 1 7 -0.186 8.449 17.776 9.44 # CG321
59 1 3 0.09 8.47 18.165 10.484 # HGA2
60 1 3 0.09 7.68 17.031 9.551 # HGA2
61 1 10 -0.399 10.915 18.065 9.748 # NG2R53
62 1 5 0.371 11.443 18.799 8.566 # CG2R53
63 1 11 -0.49 10.687 19.813 8.271 # OG2D1
64 1 9 -0.011 12.808 19.363 8.949 # CG3C52
65 1 1 0.09 13.521 19.311 8.096 # HRA2
66 1 1 0.09 12.734 20.438 9.261 # HRA2
67 1 9 -0.188 13.264 18.503 10.098 # CG3C52
68 1 1 0.09 14.278 18.076 9.908 # HRA2
69 1 1 0.09 13.276 19.099 11.05 # HRA2
70 1 9 0.067 12.198 17.426 10.173 # CG3C52
71 1 1 0.09 12.496 16.585 9.492 # HRA2
72 1 1 0.09 12.164 17.1 11.237 # HRA2
73 1 8 -0.273 7.965 20.275 9.277 # CG331
74 1 4 0.09 8.839 20.303 9.967 # HGA3
75 1 4 0.09 7.037 20.404 9.874 # HGA3
76 1 4 0.09 8.078 21.142 8.592 # HGA3
77 1 6 0.026 7.946 18.941 8.482 # CG311
78 1 2 0.09 8.702 19.036 7.689 # HGA1
79 1 10 -0.399 6.669 18.691 7.674 # NG2R53
80 1 5 0.371 5.9 19.954 7.489 # CG2R53
81 1 11 -0.49 6.08 20.389 6.266 # OG2D1
82 1 9 -0.011 4.41 19.687 7.755 # CG3C52
83 1 1 0.09 4.106 20.214 8.694 # HRA2
84 1 1 0.09 3.754 20.016 6.916 # HRA2
85 1 9 -0.188 4.308 18.198 7.969 # CG3C52
86 1 1 0.09 3.579 17.934 8.781 # HRA2
87 1 1 0.09 4.042 17.652 7.015 # HRA2
88 1 9 0.067 5.707 17.84 8.401 # CG3C52
89 1 1 0.09 5.788 17.951 9.515 # HRA2
90 1 1 0.09 5.892 16.822 8.037 # HRA2
91 2 8 -0.273 11.691 9.564 26.863 # CG331
92 2 4 0.09 11.483 8.523 27.194 # HGA3
93 2 4 0.09 11.684 10.141 27.811 # HGA3
94 2 4 0.09 12.681 9.6 26.365 # HGA3
95 2 6 0.026 10.584 10.077 25.931 # CG311
96 2 2 0.09 9.643 9.726 26.424 # HGA1
97 2 7 -0.186 10.528 11.636 26.015 # CG321
98 2 3 0.09 10.368 11.963 27.07 # HGA2
99 2 3 0.09 9.533 11.809 25.63 # HGA2
100 2 10 -0.399 10.654 9.552 24.5 # NG2R53
101 2 5 0.371 9.28 9.498 23.902 # CG2R53
102 2 11 -0.49 8.625 10.626 23.933 # OG2D1
103 2 9 -0.011 8.494 8.341 24.493 # CG3C52
104 2 1 0.09 7.906 8.647 25.394 # HRA2
105 2 1 0.09 7.805 7.918 23.73 # HRA2
106 2 9 -0.188 9.579 7.357 24.867 # CG3C52
107 2 1 0.09 9.473 6.408 24.286 # HRA2
108 2 1 0.09 9.536 7.132 25.959 # HRA2
109 2 9 0.067 10.889 8.074 24.516 # CG3C52
110 2 1 0.09 11.738 7.742 25.148 # HRA2
111 2 1 0.09 11.186 7.761 23.485 # HRA2
112 2 6 0.026 11.53 12.594 25.213 # CG311
113 2 2 0.09 12.233 11.954 24.624 # HGA1
114 2 7 -0.186 10.652 13.456 24.209 # CG321
115 2 3 0.09 10.188 12.726 23.502 # HGA2
116 2 3 0.09 11.222 14.131 23.543 # HGA2
117 2 10 -0.399 12.294 13.588 26.082 # NG2R53
118 2 5 0.371 13.552 14.027 25.395 # CG2R53
119 2 11 -0.49 13.407 14.319 24.133 # OG2D1
120 2 9 -0.011 14.641 13.001 25.592 # CG3C52
121 2 1 0.09 14.668 12.276 24.742 # HRA2
122 2 1 0.09 15.619 13.519 25.698 # HRA2
123 2 9 -0.188 14.25 12.307 26.863 # CG3C52
124 2 1 0.09 14.138 11.222 26.677 # HRA2
125 2 1 0.09 15.006 12.462 27.665 # HRA2
126 2 9 0.067 12.926 12.939 27.263 # CG3C52
127 2 1 0.09 12.294 12.248 27.83 # HRA2
128 2 1 0.09 13.142 13.748 27.999 # HRA2
129 2 6 0.026 9.51 14.267 24.91 # CG311
130 2 2 0.09 9.589 13.913 25.965 # HGA1
131 2 7 -0.186 9.761 15.79 25.271 # CG321
132 2 3 0.09 10.685 15.719 25.854 # HGA2
133 2 3 0.09 9.034 16.036 26.081 # HGA2
134 2 10 -0.399 8.183 13.758 24.392 # NG2R53
135 2 5 0.371 7.382 14.811 23.751 # CG2R53
136 2 11 -0.49 7.283 14.546 22.475 # OG2D1
137 2 9 -0.011 5.982 14.795 24.383 # CG3C52
138 2 1 0.09 5.913 15.615 25.134 # HRA2
139 2 1 0.09 5.145 14.888 23.647 # HRA2
140 2 9 -0.188 5.918 13.506 25.116 # CG3C52
141 2 1 0.09 5.228 13.532 25.986 # HRA2
142 2 1 0.09 5.633 12.691 24.413 # HRA2
143 2 9 0.067 7.338 13.345 25.545 # CG3C52
144 2 1 0.09 7.517 13.97 26.46 # HRA2
145 2 1 0.09 7.501 12.278 25.782 # HRA2
146 2 6 0.026 9.85 17.055 24.287 # CG311
147 2 2 0.09 10.001 16.714 23.228 # HGA1
148 2 7 -0.186 8.449 17.776 24.44 # CG321
149 2 3 0.09 8.47 18.165 25.484 # HGA2
150 2 3 0.09 7.68 17.031 24.551 # HGA2
151 2 10 -0.399 10.915 18.065 24.748 # NG2R53
152 2 5 0.371 11.443 18.799 23.566 # CG2R53
153 2 11 -0.49 10.687 19.813 23.271 # OG2D1
154 2 9 -0.011 12.808 19.363 23.949 # CG3C52
155 2 1 0.09 13.521 19.311 23.096 # HRA2
156 2 1 0.09 12.734 20.438 24.261 # HRA2
157 2 9 -0.188 13.264 18.503 25.098 # CG3C52
158 2 1 0.09 14.278 18.076 24.908 # HRA2
159 2 1 0.09 13.276 19.099 26.05 # HRA2
160 2 9 0.067 12.198 17.426 25.173 # CG3C52
161 2 1 0.09 12.496 16.585 24.492 # HRA2
162 2 1 0.09 12.164 17.1 26.237 # HRA2
163 2 8 -0.273 7.965 20.275 24.277 # CG331
164 2 4 0.09 8.839 20.303 24.967 # HGA3
165 2 4 0.09 7.037 20.404 24.874 # HGA3
166 2 4 0.09 8.078 21.142 23.592 # HGA3
167 2 6 0.026 7.946 18.941 23.482 # CG311
168 2 2 0.09 8.702 19.036 22.689 # HGA1
169 2 10 -0.399 6.669 18.691 22.674 # NG2R53
170 2 5 0.371 5.9 19.954 22.489 # CG2R53
171 2 11 -0.49 6.08 20.389 21.266 # OG2D1
172 2 9 -0.011 4.41 19.687 22.755 # CG3C52
173 2 1 0.09 4.106 20.214 23.694 # HRA2
174 2 1 0.09 3.754 20.016 21.916 # HRA2
175 2 9 -0.188 4.308 18.198 22.969 # CG3C52
176 2 1 0.09 3.579 17.934 23.781 # HRA2
177 2 1 0.09 4.042 17.652 22.015 # HRA2
178 2 9 0.067 5.707 17.84 23.401 # CG3C52
179 2 1 0.09 5.788 17.951 24.515 # HRA2
180 2 1 0.09 5.892 16.822 23.037 # HRA2
181 3 8 -0.273 11.691 29.564 11.863 # CG331
182 3 4 0.09 11.483 28.523 12.194 # HGA3
183 3 4 0.09 11.684 30.141 12.811 # HGA3
184 3 4 0.09 12.681 29.6 11.365 # HGA3
185 3 6 0.026 10.584 30.077 10.931 # CG311
186 3 2 0.09 9.643 29.726 11.424 # HGA1
187 3 7 -0.186 10.528 31.636 11.015 # CG321
188 3 3 0.09 10.368 31.963 12.07 # HGA2
189 3 3 0.09 9.533 31.809 10.63 # HGA2
190 3 10 -0.399 10.654 29.552 9.5 # NG2R53
191 3 5 0.371 9.28 29.498 8.902 # CG2R53
192 3 11 -0.49 8.625 30.626 8.933 # OG2D1
193 3 9 -0.011 8.494 28.341 9.493 # CG3C52
194 3 1 0.09 7.906 28.647 10.394 # HRA2
195 3 1 0.09 7.805 27.918 8.73 # HRA2
196 3 9 -0.188 9.579 27.357 9.867 # CG3C52
197 3 1 0.09 9.473 26.408 9.286 # HRA2
198 3 1 0.09 9.536 27.132 10.959 # HRA2
199 3 9 0.067 10.889 28.074 9.516 # CG3C52
200 3 1 0.09 11.738 27.742 10.148 # HRA2
201 3 1 0.09 11.186 27.761 8.485 # HRA2
202 3 6 0.026 11.53 32.594 10.213 # CG311
203 3 2 0.09 12.233 31.954 9.624 # HGA1
204 3 7 -0.186 10.652 33.456 9.209 # CG321
205 3 3 0.09 10.188 32.726 8.502 # HGA2
206 3 3 0.09 11.222 34.131 8.543 # HGA2
207 3 10 -0.399 12.294 33.588 11.082 # NG2R53
208 3 5 0.371 13.552 34.027 10.395 # CG2R53
209 3 11 -0.49 13.407 34.319 9.133 # OG2D1
210 3 9 -0.011 14.641 33.001 10.592 # CG3C52
211 3 1 0.09 14.668 32.276 9.742 # HRA2
212 3 1 0.09 15.619 33.519 10.698 # HRA2
213 3 9 -0.188 14.25 32.307 11.863 # CG3C52
214 3 1 0.09 14.138 31.222 11.677 # HRA2
215 3 1 0.09 15.006 32.462 12.665 # HRA2
216 3 9 0.067 12.926 32.939 12.263 # CG3C52
217 3 1 0.09 12.294 32.248 12.83 # HRA2
218 3 1 0.09 13.142 33.748 12.999 # HRA2
219 3 6 0.026 9.51 34.267 9.91 # CG311
220 3 2 0.09 9.589 33.913 10.965 # HGA1
221 3 7 -0.186 9.761 35.79 10.271 # CG321
222 3 3 0.09 10.685 35.719 10.854 # HGA2
223 3 3 0.09 9.034 36.036 11.081 # HGA2
224 3 10 -0.399 8.183 33.758 9.392 # NG2R53
225 3 5 0.371 7.382 34.811 8.751 # CG2R53
226 3 11 -0.49 7.283 34.546 7.475 # OG2D1
227 3 9 -0.011 5.982 34.795 9.383 # CG3C52
228 3 1 0.09 5.913 35.615 10.134 # HRA2
229 3 1 0.09 5.145 34.888 8.647 # HRA2
230 3 9 -0.188 5.918 33.506 10.116 # CG3C52
231 3 1 0.09 5.228 33.532 10.986 # HRA2
232 3 1 0.09 5.633 32.691 9.413 # HRA2
233 3 9 0.067 7.338 33.345 10.545 # CG3C52
234 3 1 0.09 7.517 33.97 11.46 # HRA2
235 3 1 0.09 7.501 32.278 10.782 # HRA2
236 3 6 0.026 9.85 37.055 9.287 # CG311
237 3 2 0.09 10.001 36.714 8.228 # HGA1
238 3 7 -0.186 8.449 37.776 9.44 # CG321
239 3 3 0.09 8.47 38.165 10.484 # HGA2
240 3 3 0.09 7.68 37.031 9.551 # HGA2
241 3 10 -0.399 10.915 38.065 9.748 # NG2R53
242 3 5 0.371 11.443 38.799 8.566 # CG2R53
243 3 11 -0.49 10.687 39.813 8.271 # OG2D1
244 3 9 -0.011 12.808 39.363 8.949 # CG3C52
245 3 1 0.09 13.521 39.311 8.096 # HRA2
246 3 1 0.09 12.734 40.438 9.261 # HRA2
247 3 9 -0.188 13.264 38.503 10.098 # CG3C52
248 3 1 0.09 14.278 38.076 9.908 # HRA2
249 3 1 0.09 13.276 39.099 11.05 # HRA2
250 3 9 0.067 12.198 37.426 10.173 # CG3C52
251 3 1 0.09 12.496 36.585 9.492 # HRA2
252 3 1 0.09 12.164 37.1 11.237 # HRA2
253 3 8 -0.273 7.965 40.275 9.277 # CG331
254 3 4 0.09 8.839 40.303 9.967 # HGA3
255 3 4 0.09 7.037 40.404 9.874 # HGA3
256 3 4 0.09 8.078 41.142 8.592 # HGA3
257 3 6 0.026 7.946 38.941 8.482 # CG311
258 3 2 0.09 8.702 39.036 7.689 # HGA1
259 3 10 -0.399 6.669 38.691 7.674 # NG2R53
260 3 5 0.371 5.9 39.954 7.489 # CG2R53
261 3 11 -0.49 6.08 40.389 6.266 # OG2D1
262 3 9 -0.011 4.41 39.687 7.755 # CG3C52
263 3 1 0.09 4.106 40.214 8.694 # HRA2
264 3 1 0.09 3.754 40.016 6.916 # HRA2
265 3 9 -0.188 4.308 38.198 7.969 # CG3C52
266 3 1 0.09 3.579 37.934 8.781 # HRA2
267 3 1 0.09 4.042 37.652 7.015 # HRA2
268 3 9 0.067 5.707 37.84 8.401 # CG3C52
269 3 1 0.09 5.788 37.951 9.515 # HRA2
270 3 1 0.09 5.892 36.822 8.037 # HRA2
271 4 8 -0.273 11.691 29.564 26.863 # CG331
272 4 4 0.09 11.483 28.523 27.194 # HGA3
273 4 4 0.09 11.684 30.141 27.811 # HGA3
274 4 4 0.09 12.681 29.6 26.365 # HGA3
275 4 6 0.026 10.584 30.077 25.931 # CG311
276 4 2 0.09 9.643 29.726 26.424 # HGA1
277 4 7 -0.186 10.528 31.636 26.015 # CG321
278 4 3 0.09 10.368 31.963 27.07 # HGA2
279 4 3 0.09 9.533 31.809 25.63 # HGA2
280 4 10 -0.399 10.654 29.552 24.5 # NG2R53
281 4 5 0.371 9.28 29.498 23.902 # CG2R53
282 4 11 -0.49 8.625 30.626 23.933 # OG2D1
283 4 9 -0.011 8.494 28.341 24.493 # CG3C52
284 4 1 0.09 7.906 28.647 25.394 # HRA2
285 4 1 0.09 7.805 27.918 23.73 # HRA2
286 4 9 -0.188 9.579 27.357 24.867 # CG3C52
287 4 1 0.09 9.473 26.408 24.286 # HRA2
288 4 1 0.09 9.536 27.132 25.959 # HRA2
289 4 9 0.067 10.889 28.074 24.516 # CG3C52
290 4 1 0.09 11.738 27.742 25.148 # HRA2
291 4 1 0.09 11.186 27.761 23.485 # HRA2
292 4 6 0.026 11.53 32.594 25.213 # CG311
293 4 2 0.09 12.233 31.954 24.624 # HGA1
294 4 7 -0.186 10.652 33.456 24.209 # CG321
295 4 3 0.09 10.188 32.726 23.502 # HGA2
296 4 3 0.09 11.222 34.131 23.543 # HGA2
297 4 10 -0.399 12.294 33.588 26.082 # NG2R53
298 4 5 0.371 13.552 34.027 25.395 # CG2R53
299 4 11 -0.49 13.407 34.319 24.133 # OG2D1
300 4 9 -0.011 14.641 33.001 25.592 # CG3C52
301 4 1 0.09 14.668 32.276 24.742 # HRA2
302 4 1 0.09 15.619 33.519 25.698 # HRA2
303 4 9 -0.188 14.25 32.307 26.863 # CG3C52
304 4 1 0.09 14.138 31.222 26.677 # HRA2
305 4 1 0.09 15.006 32.462 27.665 # HRA2
306 4 9 0.067 12.926 32.939 27.263 # CG3C52
307 4 1 0.09 12.294 32.248 27.83 # HRA2
308 4 1 0.09 13.142 33.748 27.999 # HRA2
309 4 6 0.026 9.51 34.267 24.91 # CG311
310 4 2 0.09 9.589 33.913 25.965 # HGA1
311 4 7 -0.186 9.761 35.79 25.271 # CG321
312 4 3 0.09 10.685 35.719 25.854 # HGA2
313 4 3 0.09 9.034 36.036 26.081 # HGA2
314 4 10 -0.399 8.183 33.758 24.392 # NG2R53
315 4 5 0.371 7.382 34.811 23.751 # CG2R53
316 4 11 -0.49 7.283 34.546 22.475 # OG2D1
317 4 9 -0.011 5.982 34.795 24.383 # CG3C52
318 4 1 0.09 5.913 35.615 25.134 # HRA2
319 4 1 0.09 5.145 34.888 23.647 # HRA2
320 4 9 -0.188 5.918 33.506 25.116 # CG3C52
321 4 1 0.09 5.228 33.532 25.986 # HRA2
322 4 1 0.09 5.633 32.691 24.413 # HRA2
323 4 9 0.067 7.338 33.345 25.545 # CG3C52
324 4 1 0.09 7.517 33.97 26.46 # HRA2
325 4 1 0.09 7.501 32.278 25.782 # HRA2
326 4 6 0.026 9.85 37.055 24.287 # CG311
327 4 2 0.09 10.001 36.714 23.228 # HGA1
328 4 7 -0.186 8.449 37.776 24.44 # CG321
329 4 3 0.09 8.47 38.165 25.484 # HGA2
330 4 3 0.09 7.68 37.031 24.551 # HGA2
331 4 10 -0.399 10.915 38.065 24.748 # NG2R53
332 4 5 0.371 11.443 38.799 23.566 # CG2R53
333 4 11 -0.49 10.687 39.813 23.271 # OG2D1
334 4 9 -0.011 12.808 39.363 23.949 # CG3C52
335 4 1 0.09 13.521 39.311 23.096 # HRA2
336 4 1 0.09 12.734 40.438 24.261 # HRA2
337 4 9 -0.188 13.264 38.503 25.098 # CG3C52
338 4 1 0.09 14.278 38.076 24.908 # HRA2
339 4 1 0.09 13.276 39.099 26.05 # HRA2
340 4 9 0.067 12.198 37.426 25.173 # CG3C52
341 4 1 0.09 12.496 36.585 24.492 # HRA2
342 4 1 0.09 12.164 37.1 26.237 # HRA2
343 4 8 -0.273 7.965 40.275 24.277 # CG331
344 4 4 0.09 8.839 40.303 24.967 # HGA3
345 4 4 0.09 7.037 40.404 24.874 # HGA3
346 4 4 0.09 8.078 41.142 23.592 # HGA3
347 4 6 0.026 7.946 38.941 23.482 # CG311
348 4 2 0.09 8.702 39.036 22.689 # HGA1
349 4 10 -0.399 6.669 38.691 22.674 # NG2R53
350 4 5 0.371 5.9 39.954 22.489 # CG2R53
351 4 11 -0.49 6.08 40.389 21.266 # OG2D1
352 4 9 -0.011 4.41 39.687 22.755 # CG3C52
353 4 1 0.09 4.106 40.214 23.694 # HRA2
354 4 1 0.09 3.754 40.016 21.916 # HRA2
355 4 9 -0.188 4.308 38.198 22.969 # CG3C52
356 4 1 0.09 3.579 37.934 23.781 # HRA2
357 4 1 0.09 4.042 37.652 22.015 # HRA2
358 4 9 0.067 5.707 37.84 23.401 # CG3C52
359 4 1 0.09 5.788 37.951 24.515 # HRA2
360 4 1 0.09 5.892 36.822 23.037 # HRA2
361 5 8 -0.273 11.691 49.564 11.863 # CG331
362 5 4 0.09 11.483 48.523 12.194 # HGA3
363 5 4 0.09 11.684 50.141 12.811 # HGA3
364 5 4 0.09 12.681 49.6 11.365 # HGA3
365 5 6 0.026 10.584 50.077 10.931 # CG311
366 5 2 0.09 9.643 49.726 11.424 # HGA1
367 5 7 -0.186 10.528 51.636 11.015 # CG321
368 5 3 0.09 10.368 51.963 12.07 # HGA2
369 5 3 0.09 9.533 51.809 10.63 # HGA2
370 5 10 -0.399 10.654 49.552 9.5 # NG2R53
371 5 5 0.371 9.28 49.498 8.902 # CG2R53
372 5 11 -0.49 8.625 50.626 8.933 # OG2D1
373 5 9 -0.011 8.494 48.341 9.493 # CG3C52
374 5 1 0.09 7.906 48.647 10.394 # HRA2
375 5 1 0.09 7.805 47.918 8.73 # HRA2
376 5 9 -0.188 9.579 47.357 9.867 # CG3C52
377 5 1 0.09 9.473 46.408 9.286 # HRA2
378 5 1 0.09 9.536 47.132 10.959 # HRA2
379 5 9 0.067 10.889 48.074 9.516 # CG3C52
380 5 1 0.09 11.738 47.742 10.148 # HRA2
381 5 1 0.09 11.186 47.761 8.485 # HRA2
382 5 6 0.026 11.53 52.594 10.213 # CG311
383 5 2 0.09 12.233 51.954 9.624 # HGA1
384 5 7 -0.186 10.652 53.456 9.209 # CG321
385 5 3 0.09 10.188 52.726 8.502 # HGA2
386 5 3 0.09 11.222 54.131 8.543 # HGA2
387 5 10 -0.399 12.294 53.588 11.082 # NG2R53
388 5 5 0.371 13.552 54.027 10.395 # CG2R53
389 5 11 -0.49 13.407 54.319 9.133 # OG2D1
390 5 9 -0.011 14.641 53.001 10.592 # CG3C52
391 5 1 0.09 14.668 52.276 9.742 # HRA2
392 5 1 0.09 15.619 53.519 10.698 # HRA2
393 5 9 -0.188 14.25 52.307 11.863 # CG3C52
394 5 1 0.09 14.138 51.222 11.677 # HRA2
395 5 1 0.09 15.006 52.462 12.665 # HRA2
396 5 9 0.067 12.926 52.939 12.263 # CG3C52
397 5 1 0.09 12.294 52.248 12.83 # HRA2
398 5 1 0.09 13.142 53.748 12.999 # HRA2
399 5 6 0.026 9.51 54.267 9.91 # CG311
400 5 2 0.09 9.589 53.913 10.965 # HGA1
401 5 7 -0.186 9.761 55.79 10.271 # CG321
402 5 3 0.09 10.685 55.719 10.854 # HGA2
403 5 3 0.09 9.034 56.036 11.081 # HGA2
404 5 10 -0.399 8.183 53.758 9.392 # NG2R53
405 5 5 0.371 7.382 54.811 8.751 # CG2R53
406 5 11 -0.49 7.283 54.546 7.475 # OG2D1
407 5 9 -0.011 5.982 54.795 9.383 # CG3C52
408 5 1 0.09 5.913 55.615 10.134 # HRA2
409 5 1 0.09 5.145 54.888 8.647 # HRA2
410 5 9 -0.188 5.918 53.506 10.116 # CG3C52
411 5 1 0.09 5.228 53.532 10.986 # HRA2
412 5 1 0.09 5.633 52.691 9.413 # HRA2
413 5 9 0.067 7.338 53.345 10.545 # CG3C52
414 5 1 0.09 7.517 53.97 11.46 # HRA2
415 5 1 0.09 7.501 52.278 10.782 # HRA2
416 5 6 0.026 9.85 57.055 9.287 # CG311
417 5 2 0.09 10.001 56.714 8.228 # HGA1
418 5 7 -0.186 8.449 57.776 9.44 # CG321
419 5 3 0.09 8.47 58.165 10.484 # HGA2
420 5 3 0.09 7.68 57.031 9.551 # HGA2
421 5 10 -0.399 10.915 58.065 9.748 # NG2R53
422 5 5 0.371 11.443 58.799 8.566 # CG2R53
423 5 11 -0.49 10.687 59.813 8.271 # OG2D1
424 5 9 -0.011 12.808 59.363 8.949 # CG3C52
425 5 1 0.09 13.521 59.311 8.096 # HRA2
426 5 1 0.09 12.734 60.438 9.261 # HRA2
427 5 9 -0.188 13.264 58.503 10.098 # CG3C52
428 5 1 0.09 14.278 58.076 9.908 # HRA2
429 5 1 0.09 13.276 59.099 11.05 # HRA2
430 5 9 0.067 12.198 57.426 10.173 # CG3C52
431 5 1 0.09 12.496 56.585 9.492 # HRA2
432 5 1 0.09 12.164 57.1 11.237 # HRA2
433 5 8 -0.273 7.965 60.275 9.277 # CG331
434 5 4 0.09 8.839 60.303 9.967 # HGA3
435 5 4 0.09 7.037 60.404 9.874 # HGA3
436 5 4 0.09 8.078 61.142 8.592 # HGA3
437 5 6 0.026 7.946 58.941 8.482 # CG311
438 5 2 0.09 8.702 59.036 7.689 # HGA1
439 5 10 -0.399 6.669 58.691 7.674 # NG2R53
440 5 5 0.371 5.9 59.954 7.489 # CG2R53
441 5 11 -0.49 6.08 60.389 6.266 # OG2D1
442 5 9 -0.011 4.41 59.687 7.755 # CG3C52
443 5 1 0.09 4.106 60.214 8.694 # HRA2
444 5 1 0.09 3.754 60.016 6.916 # HRA2
445 5 9 -0.188 4.308 58.198 7.969 # CG3C52
446 5 1 0.09 3.579 57.934 8.781 # HRA2
447 5 1 0.09 4.042 57.652 7.015 # HRA2
448 5 9 0.067 5.707 57.84 8.401 # CG3C52
449 5 1 0.09 5.788 57.951 9.515 # HRA2
450 5 1 0.09 5.892 56.822 8.037 # HRA2
451 6 8 -0.273 11.691 49.564 26.863 # CG331
452 6 4 0.09 11.483 48.523 27.194 # HGA3
453 6 4 0.09 11.684 50.141 27.811 # HGA3
454 6 4 0.09 12.681 49.6 26.365 # HGA3
455 6 6 0.026 10.584 50.077 25.931 # CG311
456 6 2 0.09 9.643 49.726 26.424 # HGA1
457 6 7 -0.186 10.528 51.636 26.015 # CG321
458 6 3 0.09 10.368 51.963 27.07 # HGA2
459 6 3 0.09 9.533 51.809 25.63 # HGA2
460 6 10 -0.399 10.654 49.552 24.5 # NG2R53
461 6 5 0.371 9.28 49.498 23.902 # CG2R53
462 6 11 -0.49 8.625 50.626 23.933 # OG2D1
463 6 9 -0.011 8.494 48.341 24.493 # CG3C52
464 6 1 0.09 7.906 48.647 25.394 # HRA2
465 6 1 0.09 7.805 47.918 23.73 # HRA2
466 6 9 -0.188 9.579 47.357 24.867 # CG3C52
467 6 1 0.09 9.473 46.408 24.286 # HRA2
468 6 1 0.09 9.536 47.132 25.959 # HRA2
469 6 9 0.067 10.889 48.074 24.516 # CG3C52
470 6 1 0.09 11.738 47.742 25.148 # HRA2
471 6 1 0.09 11.186 47.761 23.485 # HRA2
472 6 6 0.026 11.53 52.594 25.213 # CG311
473 6 2 0.09 12.233 51.954 24.624 # HGA1
474 6 7 -0.186 10.652 53.456 24.209 # CG321
475 6 3 0.09 10.188 52.726 23.502 # HGA2
476 6 3 0.09 11.222 54.131 23.543 # HGA2
477 6 10 -0.399 12.294 53.588 26.082 # NG2R53
478 6 5 0.371 13.552 54.027 25.395 # CG2R53
479 6 11 -0.49 13.407 54.319 24.133 # OG2D1
480 6 9 -0.011 14.641 53.001 25.592 # CG3C52
481 6 1 0.09 14.668 52.276 24.742 # HRA2
482 6 1 0.09 15.619 53.519 25.698 # HRA2
483 6 9 -0.188 14.25 52.307 26.863 # CG3C52
484 6 1 0.09 14.138 51.222 26.677 # HRA2
485 6 1 0.09 15.006 52.462 27.665 # HRA2
486 6 9 0.067 12.926 52.939 27.263 # CG3C52
487 6 1 0.09 12.294 52.248 27.83 # HRA2
488 6 1 0.09 13.142 53.748 27.999 # HRA2
489 6 6 0.026 9.51 54.267 24.91 # CG311
490 6 2 0.09 9.589 53.913 25.965 # HGA1
491 6 7 -0.186 9.761 55.79 25.271 # CG321
492 6 3 0.09 10.685 55.719 25.854 # HGA2
493 6 3 0.09 9.034 56.036 26.081 # HGA2
494 6 10 -0.399 8.183 53.758 24.392 # NG2R53
495 6 5 0.371 7.382 54.811 23.751 # CG2R53
496 6 11 -0.49 7.283 54.546 22.475 # OG2D1
497 6 9 -0.011 5.982 54.795 24.383 # CG3C52
498 6 1 0.09 5.913 55.615 25.134 # HRA2
499 6 1 0.09 5.145 54.888 23.647 # HRA2
500 6 9 -0.188 5.918 53.506 25.116 # CG3C52
501 6 1 0.09 5.228 53.532 25.986 # HRA2
502 6 1 0.09 5.633 52.691 24.413 # HRA2
503 6 9 0.067 7.338 53.345 25.545 # CG3C52
504 6 1 0.09 7.517 53.97 26.46 # HRA2
505 6 1 0.09 7.501 52.278 25.782 # HRA2
506 6 6 0.026 9.85 57.055 24.287 # CG311
507 6 2 0.09 10.001 56.714 23.228 # HGA1
508 6 7 -0.186 8.449 57.776 24.44 # CG321
509 6 3 0.09 8.47 58.165 25.484 # HGA2
510 6 3 0.09 7.68 57.031 24.551 # HGA2
511 6 10 -0.399 10.915 58.065 24.748 # NG2R53
512 6 5 0.371 11.443 58.799 23.566 # CG2R53
513 6 11 -0.49 10.687 59.813 23.271 # OG2D1
514 6 9 -0.011 12.808 59.363 23.949 # CG3C52
515 6 1 0.09 13.521 59.311 23.096 # HRA2
516 6 1 0.09 12.734 60.438 24.261 # HRA2
517 6 9 -0.188 13.264 58.503 25.098 # CG3C52
518 6 1 0.09 14.278 58.076 24.908 # HRA2
519 6 1 0.09 13.276 59.099 26.05 # HRA2
520 6 9 0.067 12.198 57.426 25.173 # CG3C52
521 6 1 0.09 12.496 56.585 24.492 # HRA2
522 6 1 0.09 12.164 57.1 26.237 # HRA2
523 6 8 -0.273 7.965 60.275 24.277 # CG331
524 6 4 0.09 8.839 60.303 24.967 # HGA3
525 6 4 0.09 7.037 60.404 24.874 # HGA3
526 6 4 0.09 8.078 61.142 23.592 # HGA3
527 6 6 0.026 7.946 58.941 23.482 # CG311
528 6 2 0.09 8.702 59.036 22.689 # HGA1
529 6 10 -0.399 6.669 58.691 22.674 # NG2R53
530 6 5 0.371 5.9 59.954 22.489 # CG2R53
531 6 11 -0.49 6.08 60.389 21.266 # OG2D1
532 6 9 -0.011 4.41 59.687 22.755 # CG3C52
533 6 1 0.09 4.106 60.214 23.694 # HRA2
534 6 1 0.09 3.754 60.016 21.916 # HRA2
535 6 9 -0.188 4.308 58.198 22.969 # CG3C52
536 6 1 0.09 3.579 57.934 23.781 # HRA2
537 6 1 0.09 4.042 57.652 22.015 # HRA2
538 6 9 0.067 5.707 57.84 23.401 # CG3C52
539 6 1 0.09 5.788 57.951 24.515 # HRA2
540 6 1 0.09 5.892 56.822 23.037 # HRA2
541 7 8 -0.273 11.691 69.564 11.863 # CG331
542 7 4 0.09 11.483 68.523 12.194 # HGA3
543 7 4 0.09 11.684 70.141 12.811 # HGA3
544 7 4 0.09 12.681 69.6 11.365 # HGA3
545 7 6 0.026 10.584 70.077 10.931 # CG311
546 7 2 0.09 9.643 69.726 11.424 # HGA1
547 7 7 -0.186 10.528 71.636 11.015 # CG321
548 7 3 0.09 10.368 71.963 12.07 # HGA2
549 7 3 0.09 9.533 71.809 10.63 # HGA2
550 7 10 -0.399 10.654 69.552 9.5 # NG2R53
551 7 5 0.371 9.28 69.498 8.902 # CG2R53
552 7 11 -0.49 8.625 70.626 8.933 # OG2D1
553 7 9 -0.011 8.494 68.341 9.493 # CG3C52
554 7 1 0.09 7.906 68.647 10.394 # HRA2
555 7 1 0.09 7.805 67.918 8.73 # HRA2
556 7 9 -0.188 9.579 67.357 9.867 # CG3C52
557 7 1 0.09 9.473 66.408 9.286 # HRA2
558 7 1 0.09 9.536 67.132 10.959 # HRA2
559 7 9 0.067 10.889 68.074 9.516 # CG3C52
560 7 1 0.09 11.738 67.742 10.148 # HRA2
561 7 1 0.09 11.186 67.761 8.485 # HRA2
562 7 6 0.026 11.53 72.594 10.213 # CG311
563 7 2 0.09 12.233 71.954 9.624 # HGA1
564 7 7 -0.186 10.652 73.456 9.209 # CG321
565 7 3 0.09 10.188 72.726 8.502 # HGA2
566 7 3 0.09 11.222 74.131 8.543 # HGA2
567 7 10 -0.399 12.294 73.588 11.082 # NG2R53
568 7 5 0.371 13.552 74.027 10.395 # CG2R53
569 7 11 -0.49 13.407 74.319 9.133 # OG2D1
570 7 9 -0.011 14.641 73.001 10.592 # CG3C52
571 7 1 0.09 14.668 72.276 9.742 # HRA2
572 7 1 0.09 15.619 73.519 10.698 # HRA2
573 7 9 -0.188 14.25 72.307 11.863 # CG3C52
574 7 1 0.09 14.138 71.222 11.677 # HRA2
575 7 1 0.09 15.006 72.462 12.665 # HRA2
576 7 9 0.067 12.926 72.939 12.263 # CG3C52
577 7 1 0.09 12.294 72.248 12.83 # HRA2
578 7 1 0.09 13.142 73.748 12.999 # HRA2
579 7 6 0.026 9.51 74.267 9.91 # CG311
580 7 2 0.09 9.589 73.913 10.965 # HGA1
581 7 7 -0.186 9.761 75.79 10.271 # CG321
582 7 3 0.09 10.685 75.719 10.854 # HGA2
583 7 3 0.09 9.034 76.036 11.081 # HGA2
584 7 10 -0.399 8.183 73.758 9.392 # NG2R53
585 7 5 0.371 7.382 74.811 8.751 # CG2R53
586 7 11 -0.49 7.283 74.546 7.475 # OG2D1
587 7 9 -0.011 5.982 74.795 9.383 # CG3C52
588 7 1 0.09 5.913 75.615 10.134 # HRA2
589 7 1 0.09 5.145 74.888 8.647 # HRA2
590 7 9 -0.188 5.918 73.506 10.116 # CG3C52
591 7 1 0.09 5.228 73.532 10.986 # HRA2
592 7 1 0.09 5.633 72.691 9.413 # HRA2
593 7 9 0.067 7.338 73.345 10.545 # CG3C52
594 7 1 0.09 7.517 73.97 11.46 # HRA2
595 7 1 0.09 7.501 72.278 10.782 # HRA2
596 7 6 0.026 9.85 77.055 9.287 # CG311
597 7 2 0.09 10.001 76.714 8.228 # HGA1
598 7 7 -0.186 8.449 77.776 9.44 # CG321
599 7 3 0.09 8.47 78.165 10.484 # HGA2
600 7 3 0.09 7.68 77.031 9.551 # HGA2
601 7 10 -0.399 10.915 78.065 9.748 # NG2R53
602 7 5 0.371 11.443 78.799 8.566 # CG2R53
603 7 11 -0.49 10.687 79.813 8.271 # OG2D1
604 7 9 -0.011 12.808 79.363 8.949 # CG3C52
605 7 1 0.09 13.521 79.311 8.096 # HRA2
606 7 1 0.09 12.734 80.438 9.261 # HRA2
607 7 9 -0.188 13.264 78.503 10.098 # CG3C52