LAMMPS Description

     10992  atoms
     9306  bonds
     18414  angles
     28710  dihedrals
     495  impropers

     12  atom types
     12  bond types
     25  angle types
     35  dihedral types
     1  improper types

  0.0 200.00 xlo xhi
  0.0 200.00 ylo yhi
  0.0 200.00 zlo zhi

Masses

	 1 1.008 
	 2 1.008 
	 3 1.008 
	 4 1.008 
	 5 12.011 
	 6 12.011 
	 7 12.011 
	 8 12.011 
	 9 12.011 
	 10 14.007 
	 11 15.9994 
	 12 107.868 

Bond Coeffs

	 1 0.564114 1.53
	 2 0.864978 1.38
	 3 1.07182 1.235
	 4 0.418386 1.538
	 5 0.418386 1.538
	 6 0.581039 1.111
	 7 0.601724 1.43
	 8 0.581039 1.111
	 9 0.605483 1.111
	 10 0.366675 1.53
	 11 0.57728 1.1
	 12 0.695744 1.45

Angle Coeffs

	 1 0.131627 106.5 0 0
	 2 0.109062 111 0 0
	 3 0.094019 120 0 0
	 4 0.141029 111 0 0
	 5 0.10972 113.5 0.020985 2.561
	 6 0.062861 110.1 0.042365 2.179
	 7 0.062861 110.1 0.042365 2.179
	 8 0.094019 116 0 0
	 9 0.10972 113.5 0.020985 2.561
	 10 0.100319 114 0.015043 2.561
	 11 0.064873 110.1 0.042365 2.179
	 12 0.131627 113.5 0 0
	 13 0.064873 110.1 0.042365 2.179
	 14 0.131627 113.5 0 0
	 15 0.225646 105.5 0 0
	 16 0.122225 126.7 0 0
	 17 0.109062 109.5 0.020985 2.561
	 18 0.065813 111.4 0.042365 2.179
	 19 0.169235 104.5 0 0
	 20 0.090258 108 0 0
	 21 0.066754 109 0.010154 1.802
	 22 0.066754 108.4 0.010154 1.802
	 23 0.072395 106.8 0.010154 1.802
	 24 0.110943 111 0 0
	 25 0.122225 127.8 0 0

Dihedral Coeffs

	 1 0.000639 3 180 0
	 2 0 3 0 1
	 3 0.001692 1 0 1
	 4 0.001692 1 0 1
	 5 0 1 0 1
	 6 0.004344 3 180 0
	 7 0 3 0 1
	 8 0.000376 3 0 1
	 9 0.000376 3 0 1
	 10 0.000367 3 0 1
	 11 0.000376 3 0 1
	 12 0.002106 2 180 1
	 13 0.004701 2 180 1
	 14 0.00126 3 0 1
	 15 0 3 0 1
	 16 0.000376 3 0 1
	 17 0.000376 3 0 1
	 18 0 1 0 1
	 19 0.000376 3 0 1
	 20 0 1 0 1
	 21 0.000752 2 180 0
	 22 0.001974 3 180 0
	 23 0.00015 3 0 1
	 24 0.000357 3 0 1
	 25 0.004005 3 0 0
	 26 0.00487 2 180 1
	 27 0 1 0 1
	 28 0.000367 3 0 1
	 29 0.000367 3 0 1
	 30 0.000376 3 0 1
	 31 0.000376 3 0 1
	 32 0 3 180 1
	 33 0 3 0 1
	 34 0.000357 3 0 1
	 35 0 3 180 1

Improper Coeffs

	 1 0.169235 0

Atoms # full

1 1 11 -4.8999999999999999e-01 41.5428698181 29.0417521828 85.4632082939
2 1 4 8.9999999999999997e-02 47.7446031376 29.6610779401 85.0452214347
3 2 1 8.9999999999999997e-02 28.8219447988 33.9962979724 84.1687972078
4 2 9 -1.8800000000000000e-01 29.872612443 34.5281795845 84.0219744842
5 2 1 8.9999999999999997e-02 29.1713617979 36.6802123955 84.2341687928
6 2 1 8.9999999999999997e-02 30.6122518143 34.1465995751 83.121996751
7 2 2 8.9999999999999997e-02 33.147057849 34.0510950416 84.6673446952
8 2 4 8.9999999999999997e-02 35.0546174471 36.071087147 81.3750927256
9 2 6 2.5999999999999999e-02 33.9113541872 34.876243207 85.1510594991
10 2 7 -1.8600000000000000e-01 34.0564247462 35.846405843 83.9000549889
11 2 3 8.9999999999999997e-02 33.8846378555 36.2834229741 84.5684884027
12 2 3 8.9999999999999997e-02 32.9485358894 36.1697286495 83.6829434458
13 2 9 -1.0999999999999999e-02 30.1312383204 36.1354718048 83.8529408439
14 2 5 3.7100000000000000e-01 30.5523159307 36.9151407326 85.4150020103
15 2 1 8.9999999999999997e-02 30.0726826997 36.6698162467 83.2191996261
16 2 9 6.7000000000000004e-02 30.2701972865 34.437796389 85.5159705926
17 2 1 8.9999999999999997e-02 31.0022444404 33.5526628664 85.6656846293
18 2 10 -3.9900000000000002e-01 35.3556802078 34.0803014056 84.880650379
19 2 1 8.9999999999999997e-02 35.4392321918 30.6737121947 85.3361234611
20 2 9 -1.8800000000000000e-01 36.1684503216 31.7689718885 84.7607078804
21 2 1 8.9999999999999997e-02 36.8350860324 31.5667802843 84.1067855814
22 2 1 8.9999999999999997e-02 34.4108855007 32.8178333872 83.008113511
23 2 9 6.7000000000000004e-02 35.3096217064 33.1013913581 83.7186197463
24 2 1 8.9999999999999997e-02 35.5083670498 32.9875110734 82.4302715518
25 2 4 8.9999999999999997e-02 36.3825281136 37.1561610721 81.219652077
26 2 4 8.9999999999999997e-02 34.1010413014 37.1199060776 80.9689855024
27 2 8 -2.7300000000000002e-01 35.0849797388 37.1673485354 81.8399196546
28 2 6 2.5999999999999999e-02 34.8122355062 37.2420804659 83.1651314338
29 1 1 8.9999999999999997e-02 43.8657504625 32.6442908106 84.466013897
30 1 1 8.9999999999999997e-02 44.6580381857 34.7644384756 83.0347559218
31 1 9 7.0000000000000007e-02 44.9899360783 32.861630385 84.4944947861
32 1 1 8.9999999999999997e-02 44.9964050078 32.2053678369 83.6513897927
33 1 1 8.9999999999999997e-02 44.3132907663 35.2068585485 84.7393831195
34 1 1 8.9999999999999997e-02 40.4130816554 30.6323395857 84.6461515556
35 1 1 8.9999999999999997e-02 39.2219257997 30.8296294251 85.0353314707
36 1 1 8.9999999999999997e-02 40.2588526774 32.9595054023 85.5846693104
37 1 3 8.9999999999999997e-02 44.309638089 30.2920813082 85.1121711452
38 3 1 8.9999999999999997e-02 37.9606695213 37.4099786786 85.2416139972
39 1 9 -1.9000000000000000e-01 45.2044474811 34.7670585211 84.1880855581
40 1 9 -1.0000000000000000e-02 46.7228898492 34.5625622291 84.5782228586
41 1 1 8.9999999999999997e-02 47.5547306341 34.6347362414 84.2475093784
42 1 4 8.9999999999999997e-02 48.3180532749 31.2842549547 85.1443657617
43 1 4 8.9999999999999997e-02 48.3576782415 30.3376496939 85.6791680085
44 1 1 8.9999999999999997e-02 46.8873933965 35.4395631786 84.8876407605
45 1 10 -4.0000000000000002e-01 45.906500033 32.5826998797 85.4216327635
46 1 8 -2.7000000000000002e-01 47.3441072433 30.5775986687 84.9146572496
47 4 1 8.9999999999999997e-02 64.2572217053 33.5625111085 84.3106059168
48 4 5 3.7000000000000000e-01 65.4580736662 33.9036785115 85.1793829817
49 4 11 -4.8999999999999999e-01 66.2697378344 33.4020792055 84.8782675499
50 4 9 -1.0000000000000000e-02 64.2450130833 32.7297449148 85.2167971125
51 4 1 8.9999999999999997e-02 64.9712477978 31.7233170354 84.633105257
52 4 1 8.9999999999999997e-02 66.5973292624 35.7447138031 81.8595342975
53 4 9 7.0000000000000007e-02 66.6129369919 36.7555128202 81.4184088878
54 4 1 8.9999999999999997e-02 65.6070317659 36.5828724429 81.2034978835
55 4 1 8.9999999999999997e-02 66.7562974203 36.7399854247 79.1761559551
56 4 2 8.9999999999999997e-02 64.2863889301 36.7386141324 85.2551529262
57 4 7 -1.9000000000000000e-01 66.4046903527 37.2446927531 85.6285333971
58 4 1 8.9999999999999997e-02 73.8255651434 33.8654838328 85.0610673188
59 4 5 3.7000000000000000e-01 72.048384878 35.0776099502 83.8431400812
60 4 10 -4.0000000000000002e-01 70.7134126737 34.8639528089 84.1161524576
61 4 3 8.9999999999999997e-02 67.7079481352 35.3230818218 84.006286918
62 4 1 8.9999999999999997e-02 70.7041027176 32.8735793145 83.6563937781
63 4 6 2.9999999999999999e-02 69.7697579667 36.1776034999 84.559870036
64 4 2 8.9999999999999997e-02 70.1029138434 36.9257505038 83.9095220693
65 4 11 -4.8999999999999999e-01 72.1231799717 35.6221942891 82.6333453436
66 4 9 -1.0000000000000000e-02 73.0048010839 34.606717373 84.9003682949
67 4 1 8.9999999999999997e-02 72.2425450028 32.320290936 85.450045696
68 4 9 7.0000000000000007e-02 70.5800854802 33.6617909226 84.5057501333
69 4 7 -1.9000000000000000e-01 68.5361311146 36.3310862454 83.8215982668
70 4 1 8.9999999999999997e-02 69.6045669178 33.2449027955 85.046219976
71 4 3 8.9999999999999997e-02 68.3910406302 35.2653074514 83.0063898321
72 5 1 8.9999999999999997e-02 33.5670518601 22.0695892177 90.6256557364
73 5 1 8.9999999999999997e-02 32.4723106664 22.3103617154 90.5420329254
74 6 11 -4.8999999999999999e-01 37.2063236365 21.5629362093 91.6305944405
75 6 1 8.9999999999999997e-02 39.2010055254 21.3718876587 90.1522463436
76 6 9 -1.8800000000000000e-01 40.6088383885 22.4235694565 91.1583520242
77 6 9 -1.0999999999999999e-02 39.185557832 22.2226879563 90.971138623
78 6 1 8.9999999999999997e-02 41.271608915 22.2405125755 90.8559145452
79 6 5 3.7100000000000000e-01 38.3857863191 21.3631245528 91.990358554
80 7 9 -1.8800000000000000e-01 46.4371734729 21.6862721999 91.2842745902
81 7 8 -2.7300000000000002e-01 52.3942065758 20.9334441447 91.5164723999
82 7 1 8.9999999999999997e-02 47.1755269705 19.7067328131 90.3447665864
83 7 9 -1.0999999999999999e-02 47.598111166 20.9433258612 90.7611269331
84 7 4 8.9999999999999997e-02 52.2295014538 21.717407735 91.1175817713
85 7 10 -3.9900000000000002e-01 48.4990769478 21.9832901793 92.599065112
86 7 5 3.7100000000000000e-01 48.5593094567 20.6823066383 92.0604977366
87 7 9 6.7000000000000004e-02 46.884159921 21.9480261097 92.5471387925
88 7 1 8.9999999999999997e-02 47.9152296429 21.3166797461 89.704858127
89 7 1 8.9999999999999997e-02 45.3079534259 22.1219173593 91.0067923514
90 7 4 8.9999999999999997e-02 51.593875397 20.9016177862 91.2338651531
91 7 1 8.9999999999999997e-02 45.7184556482 21.3225024836 90.9213736576
92 8 4 8.9999999999999997e-02 59.3625873033 19.2121816899 89.4089561466
93 8 4 8.9999999999999997e-02 57.9311586557 20.1262714511 89.1975281315
94 8 8 -2.7300000000000002e-01 58.3969232153 19.2222720858 89.7548073884
95 8 4 8.9999999999999997e-02 57.7679164334 18.3913367003 89.5799555584
96 8 6 2.5999999999999999e-02 58.6034972801 19.7716561697 91.3228775458
97 8 1 8.9999999999999997e-02 55.2591166263 19.1359743943 91.7274946758
98 8 3 8.9999999999999997e-02 59.9837850276 21.5126950658 90.4477247027
99 7 4 8.9999999999999997e-02 52.9806336437 21.7764295502 91.2657517235
100 8 2 8.9999999999999997e-02 58.6246803666 18.8112169143 91.913135498
101 8 10 -3.9900000000000002e-01 57.6057086079 19.77988468 92.6392287005
102 8 9 -1.8800000000000000e-01 56.2332891217 21.6261520875 92.4295403322
103 8 9 6.7000000000000004e-02 56.3300310186 19.8823796807 91.9336879281
104 8 1 8.9999999999999997e-02 56.1555728132 19.2797231836 92.4620240954
105 8 1 8.9999999999999997e-02 56.4782175007 21.8219767385 91.1358963165
106 8 1 8.9999999999999997e-02 55.3498235384 22.0611068208 92.5741377939
107 8 7 -1.8600000000000000e-01 60.2147734266 20.6673313775 91.1140615257
108 8 3 8.9999999999999997e-02 63.8426256775 18.6553988795 90.9280627547
109 8 3 8.9999999999999997e-02 61.9422183684 18.3514937077 91.0528309164
110 8 11 -4.8999999999999999e-01 62.9053925611 16.0431716167 92.7884679816
111 8 6 2.5999999999999999e-02 61.8723499871 20.4709963027 90.7022577329
112 8 7 -1.8600000000000000e-01 62.6217523524 19.0181162792 91.1964083224
113 8 6 2.5999999999999999e-02 63.0405022713 18.8291289917 92.7088785322
114 8 2 8.9999999999999997e-02 61.9107081796 20.1724640537 89.7102186476
115 8 1 8.9999999999999997e-02 64.6245224934 20.5200390549 90.0558704132
116 8 10 -3.9900000000000002e-01 62.7414348678 21.8308095388 90.7574114311
117 8 1 8.9999999999999997e-02 64.7494953609 21.9663970698 91.2408767855
118 8 9 6.7000000000000004e-02 64.2100689105 21.6677148689 90.3756454347
119 8 3 8.9999999999999997e-02 60.2807024825 21.119638332 92.2827254188
120 8 11 -4.8999999999999999e-01 68.7487377044 20.53918553 90.2075454962
121 8 1 8.9999999999999997e-02 70.0944260182 18.7819562857 91.0578403766
122 8 1 8.9999999999999997e-02 68.6568955066 17.9377174711 90.6122491971
123 8 5 3.7100000000000000e-01 68.6766660196 19.8237941474 91.3059064103
124 8 9 -1.0999999999999999e-02 69.2184234903 18.3935700938 91.4990876888
125 9 1 8.9999999999999997e-02 71.8814764365 21.2733169389 90.2112405371
126 9 1 8.9999999999999997e-02 72.3743788009 19.9705943441 90.9358800977
127 9 9 -1.9000000000000000e-01 72.5537827462 21.002932735 90.9517342354
128 9 9 7.0000000000000007e-02 74.1392483065 21.9345057992 90.9364554988
129 9 1 8.9999999999999997e-02 70.7777571596 22.1551818256 92.1562734394
130 9 1 8.9999999999999997e-02 72.0680032978 22.1539645657 92.8423712485
131 9 9 -1.0000000000000000e-02 72.0081140195 22.2751065227 91.9404311034
132 9 1 8.9999999999999997e-02 74.5885769124 22.1676811848 89.8794932429
133 8 10 -3.9900000000000002e-01 68.4635167076 19.9155280011 92.6306918469
134 10 4 8.9999999999999997e-02 23.1364492536 29.5106482513 91.1562207376
135 5 1 8.9999999999999997e-02 25.6949064582 28.0297702531 89.7739736295
136 5 1 8.9999999999999997e-02 25.4040452295 28.0021271306 92.1579258704
137 5 1 8.9999999999999997e-02 24.2170284629 26.4754984611 91.8042146062
138 5 6 2.9999999999999999e-02 28.6224677426 25.2268204329 91.2230992748
139 5 5 3.7000000000000000e-01 26.152759413 25.5227864705 92.1356434312
140 5 10 -4.0000000000000002e-01 27.4550325857 26.1784229797 91.6262812764
141 5 7 -1.9000000000000000e-01 29.7133655898 26.0686578735 90.1565318523
142 5 9 -1.0000000000000000e-02 24.9544797959 25.9107658003 91.276948803
143 5 9 -1.9000000000000000e-01 25.900042511 27.7022168013 91.2089712039
144 5 8 -2.7000000000000002e-01 27.9794077211 23.8172010446 90.4619855885
145 5 4 8.9999999999999997e-02 29.1137368832 23.4446077422 89.642324234
146 5 9 7.0000000000000007e-02 27.2205903499 27.5473723464 91.9238420333
147 5 1 8.9999999999999997e-02 24.9567291131 24.6982266813 90.8663821027
148 5 3 8.9999999999999997e-02 29.021652253 26.9903115839 89.4473999877
149 5 4 8.9999999999999997e-02 27.8784227653 22.9375394318 91.1264151482
150 5 4 8.9999999999999997e-02 27.0327384727 23.9512924523 89.9469641714
151 5 1 8.9999999999999997e-02 27.901360244 28.4475907796 91.4367865162
152 5 2 8.9999999999999997e-02 29.9271795036 27.5692652641 91.74459134
153 5 2 8.9999999999999997e-02 29.2624278121 25.1676645077 92.4647418033
154 5 6 2.9999999999999999e-02 30.6658110956 27.453586589 90.9748384012
155 5 3 8.9999999999999997e-02 30.5588912124 25.9695842818 89.7006184928
156 5 9 7.0000000000000007e-02 30.901473701 28.6240866 88.4900293488
157 5 1 8.9999999999999997e-02 30.2389055557 29.1580626096 88.1041137748
158 5 10 -4.0000000000000002e-01 30.8815731622 29.0140481691 90.164179908
159 5 1 8.9999999999999997e-02 31.4619721388 27.6754316042 88.0062621676
160 5 9 -1.9000000000000000e-01 32.8780644165 23.1199485519 90.725795846
161 5 9 7.0000000000000007e-02 33.0301017952 24.009988465 91.5630461344
162 5 1 8.9999999999999997e-02 34.9139972715 23.3740102139 89.6520978736
163 5 7 -1.9000000000000000e-01 32.0245187033 26.9450464588 91.9018749467
164 5 9 -1.0000000000000000e-02 33.8657899391 23.5264754867 89.3470953059
165 5 1 8.9999999999999997e-02 33.4579022076 23.4682317008 88.371337216
166 5 5 3.7000000000000000e-01 33.6242388816 24.8653760609 89.4987189598
167 5 11 -4.8999999999999999e-01 34.1945312106 25.7780488098 88.9614889744
168 5 10 -4.0000000000000002e-01 33.3053771852 25.2861307873 90.5875241373
169 5 6 2.9999999999999999e-02 33.3104395703 26.7883609171 91.261183221
170 5 7 -1.9000000000000000e-01 34.474233599 27.6765540346 92.1378488663
171 5 6 2.9999999999999999e-02 36.0956826118 28.2104101699 91.2132238484
172 5 2 8.9999999999999997e-02 35.9189285082 27.5828868817 90.2496145028
173 5 2 8.9999999999999997e-02 33.305246081 27.3586051206 90.3714151232
174 5 7 -1.9000000000000000e-01 36.9867429929 27.427061016 92.0061642776
175 5 8 -2.7000000000000002e-01 36.7984425878 24.9327336707 92.1905826512
176 5 10 -4.0000000000000002e-01 35.8050256156 29.4494927233 90.5882717472
177 5 1 8.9999999999999997e-02 33.5931270013 24.3059265919 92.0647376448
178 5 4 8.9999999999999997e-02 35.806917618 25.3555442439 91.2331230263
179 5 4 8.9999999999999997e-02 37.2435188705 24.1143487726 92.276576256
180 5 6 2.9999999999999999e-02 37.4603722291 26.0882746153 91.7379835144
181 5 1 8.9999999999999997e-02 36.9580383687 25.7338079907 89.4542983487
182 5 1 8.9999999999999997e-02 37.0314943368 24.7356531998 89.423148229
183 5 1 8.9999999999999997e-02 32.5789015178 29.8151638359 88.0116170787
184 5 1 8.9999999999999997e-02 33.145275758 23.9707465239 92.8310677994
185 5 3 8.9999999999999997e-02 31.779156744 26.4940306941 92.7503496655
186 5 3 8.9999999999999997e-02 31.8345064205 27.5119365081 92.6643312419
187 6 1 8.9999999999999997e-02 38.2030611812 22.6778786144 90.3808002025
188 6 1 8.9999999999999997e-02 40.4252726725 23.4395543497 90.7968513254
189 5 10 -4.0000000000000002e-01 38.6330353979 25.7553937131 90.8174455196
190 5 9 7.0000000000000007e-02 38.0450381231 25.4548633143 89.4577958892
191 5 1 8.9999999999999997e-02 38.7611591815 26.897867354 87.088822595
192 5 9 -1.9000000000000000e-01 38.4082189851 26.5700458828 88.1557949322
193 5 5 3.7000000000000000e-01 39.7216134116 26.4797381027 90.1954317129
194 5 1 8.9999999999999997e-02 37.9570138217 27.6823381373 87.6375144459
195 5 1 8.9999999999999997e-02 40.1548777834 27.8493403278 88.7152269732
196 5 9 -1.0000000000000000e-02 39.6926157015 26.7637855596 88.7585298661
197 7 11 -4.8999999999999999e-01 43.4253478599 22.8337377459 89.5725443203
198 5 1 8.9999999999999997e-02 40.6367343981 26.6954812618 88.458535702
199 1 9 -1.9000000000000000e-01 42.6129145615 28.7617193476 91.9658681073
200 1 9 -1.0000000000000000e-02 41.2394847286 29.6126816729 92.4047289758
201 7 5 3.7100000000000000e-01 43.7711405519 23.9106452087 89.0271624433
202 1 1 8.9999999999999997e-02 39.9600783088 29.2899280741 92.5169449245
203 7 10 -3.9900000000000002e-01 44.2616571464 25.1787504363 89.6829439964
204 1 1 8.9999999999999997e-02 42.7196463941 27.6544965742 92.3037044842
205 7 9 6.7000000000000004e-02 44.5070938519 26.0397172087 88.6287643375
206 7 1 8.9999999999999997e-02 44.8079330567 27.2838045814 88.5909924664
207 5 11 -4.8999999999999999e-01 40.1786556454 26.8308795659 91.3190124184
208 7 1 8.9999999999999997e-02 42.0200485142 24.5407417008 88.2382416853
209 5 1 8.9999999999999997e-02 38.5841087757 29.4896497279 90.4689230665
210 1 9 7.0000000000000007e-02 42.8333864817 29.1098798459 90.5104503573
211 1 1 8.9999999999999997e-02 43.6800333266 29.2595990388 92.7475046692
212 7 8 -2.7300000000000002e-01 43.8872048671 24.8224732473 92.0809097742
213 7 2 8.9999999999999997e-02 44.7595317648 26.6076048073 91.2651017452
214 7 6 2.5999999999999999e-02 44.9093684014 25.472317405 91.1011707493
215 7 1 8.9999999999999997e-02 42.5289129192 26.6379135852 87.465475092
216 7 9 -1.8800000000000000e-01 43.2815765126 25.7748252558 87.5464044928
217 7 9 -1.0999999999999999e-02 42.7913227664 24.5436742722 87.5622382447
218 7 1 8.9999999999999997e-02 42.7681263659 23.4582075837 87.3268529372
219 7 1 8.9999999999999997e-02 44.0083545627 25.8744619526 86.7591956361
220 1 1 8.9999999999999997e-02 42.052973684 28.0179541002 90.2979152159
221 7 4 8.9999999999999997e-02 42.7394628125 25.1614681589 91.8206862503
222 1 3 8.9999999999999997e-02 44.7948198964 29.1903356031 86.0714312467
223 1 5 3.7000000000000000e-01 41.2403879929 29.8524323255 86.0437388848
224 1 2 8.9999999999999997e-02 43.4902771845 29.3191660321 87.45763306
225 6 9 6.7000000000000004e-02 40.508387919 22.997282158 92.7423661627
226 5 3 8.9999999999999997e-02 38.0645563278 28.0431517161 91.8258939067
227 1 1 8.9999999999999997e-02 43.5401040382 28.6104493741 90.0283074459
228 7 4 8.9999999999999997e-02 44.02371 23.942804633 92.6590757075
229 7 1 8.9999999999999997e-02 45.1755592056 26.4830035654 88.81957716
230 7 6 2.5999999999999999e-02 49.348810268 22.9883976878 92.8005310992
231 7 3 8.9999999999999997e-02 49.1676454015 23.4691673255 90.5185066983
232 7 3 8.9999999999999997e-02 50.3334118527 23.4832377468 91.0959669616
233 7 7 -1.8600000000000000e-01 49.7185255366 23.9484437952 91.5014495201
234 7 7 -1.8600000000000000e-01 46.5870170416 25.4274121027 90.977453223
235 7 11 -4.8999999999999999e-01 46.8735338853 28.5806056544 88.7980275709
236 7 6 2.5999999999999999e-02 50.253672465 25.3017582178 91.6333595101
237 7 7 -1.8600000000000000e-01 49.1219307171 26.0203219564 91.0360466071
238 7 6 2.5999999999999999e-02 47.8013858494 26.0333182023 91.4975389241
239 7 5 3.7100000000000000e-01 47.3214376771 28.3388902822 89.9654442697
240 7 10 -3.9900000000000002e-01 47.1519804172 27.7226866582 91.1922249042
241 7 3 8.9999999999999997e-02 49.2470056072 26.3341622976 89.7615632829
242 7 3 8.9999999999999997e-02 49.4260434974 25.5239791898 89.7510320835
243 7 10 -3.9900000000000002e-01 51.8200297245 25.7278423716 90.9791669989
244 7 9 6.7000000000000004e-02 47.2427722925 28.9981482633 92.1167029545
245 7 2 8.9999999999999997e-02 50.0228062537 25.6895195303 92.7481123426
246 7 3 8.9999999999999997e-02 46.7979509675 24.6867827986 89.9457232618
247 11 1 8.9999999999999997e-02 51.2202000679 28.7276707332 90.3661718221
248 7 3 8.9999999999999997e-02 46.1829098885 24.9890425308 91.5687320468
249 7 2 8.9999999999999997e-02 47.8751507981 25.9083302766 92.4966219759
250 11 9 -1.0000000000000000e-02 51.9729631997 29.3207380488 90.2621055256
251 7 11 -4.8999999999999999e-01 51.5902845048 24.9873718528 88.7961185321
252 7 5 3.7100000000000000e-01 52.4426826713 25.4429294019 89.6649052657
253 7 9 -1.0999999999999999e-02 47.9391542874 29.8439107286 90.7226078902
254 7 9 -1.8800000000000000e-01 48.8319552603 29.285498927 91.8897379625
255 7 1 8.9999999999999997e-02 49.3894816978 29.7665784139 92.4435549316
256 7 1 8.9999999999999997e-02 49.2818096323 28.6523349284 92.1344291491
257 7 1 8.9999999999999997e-02 53.2250278535 26.8606161753 92.5979614507
258 11 1 8.9999999999999997e-02 52.5076616465 28.179638819 90.3378932827
259 7 9 6.7000000000000004e-02 52.7528917928 25.9289519851 92.205137376
260 7 1 8.9999999999999997e-02 53.6597674818 23.6172783446 89.8718013129
261 7 9 -1.0999999999999999e-02 53.8161378884 24.8531270043 90.0960300014
262 7 1 8.9999999999999997e-02 54.4521855701 25.1763348193 89.2609940801
263 7 9 -1.8800000000000000e-01 54.3147354803 25.207198894 91.7761621334
264 7 1 8.9999999999999997e-02 55.3675162707 25.6937601149 92.196032852
265 7 1 8.9999999999999997e-02 54.2898365413 24.1493745928 92.2895387233
266 11 5 3.7000000000000000e-01 57.9129949926 26.229641173 91.3720213964
267 11 10 -4.0000000000000002e-01 57.8491670436 27.6606074108 91.3017032481
268 11 9 7.0000000000000007e-02 58.6682251791 28.0660791999 90.0207413487
269 11 6 2.9999999999999999e-02 57.4539828524 28.9655832105 91.9860452809
270 11 7 -1.9000000000000000e-01 56.4883337393 29.8995172334 91.4303290141
271 11 8 -2.7000000000000002e-01 58.3907687269 29.9992663875 92.2284773979
272 11 1 8.9999999999999997e-02 59.076398098 28.9878746487 89.7316524786
273 11 3 8.9999999999999997e-02 55.6218329178 29.1675054634 91.5450406454
274 11 11 -4.8999999999999999e-01 57.6243775902 25.6550691256 92.6473797264
275 11 11 -4.8999999999999999e-01 52.7971855839 29.1437380658 92.4448140621
276 11 1 8.9999999999999997e-02 53.8820864647 29.8110988187 88.2111765513
277 11 5 3.7000000000000000e-01 52.5893863161 29.6248228326 91.350427349
278 11 9 -1.9000000000000000e-01 53.059905851 29.644519043 88.8831102039
279 11 9 -1.9000000000000000e-01 59.7736006792 27.1894401115 89.7333672158
280 11 9 -1.0000000000000000e-02 59.3130674548 25.7719962829 90.690789214
281 11 1 8.9999999999999997e-02 59.3900696355 26.688436834 89.0066220326
282 11 1 8.9999999999999997e-02 59.6725615995 28.479526412 90.9262409918
283 11 1 8.9999999999999997e-02 59.7371476721 25.1520351761 91.2509864716
284 8 5 3.7100000000000000e-01 62.2512691959 23.2558856602 91.3255993904
285 11 1 8.9999999999999997e-02 60.0235409007 25.9090292144 91.2610646778
286 8 1 8.9999999999999997e-02 64.6850420994 23.0609225321 88.8701598621
287 8 1 8.9999999999999997e-02 63.2769194138 24.4044947156 91.1084672865
288 11 1 8.9999999999999997e-02 60.3713599504 27.174352881 89.1071173166
289 8 1 8.9999999999999997e-02 63.8982964769 22.575258459 88.7124598297
290 8 9 -1.8800000000000000e-01 64.034216347 22.7497985286 89.7594741917
291 8 1 8.9999999999999997e-02 62.5960111344 24.1999667726 89.3713839022
292 8 9 -1.0999999999999999e-02 63.2349108982 23.8701335304 90.210741408
293 12 8 -2.7000000000000002e-01 63.3268891379 27.2475647925 87.5994580926
294 12 6 2.9999999999999999e-02 64.2765075659 27.5609227848 89.0439216308
295 12 10 -4.0000000000000002e-01 63.6830071237 28.3141910121 89.9272933042
296 12 7 -1.9000000000000000e-01 65.918849225 27.8142131334 88.5739789834
297 12 3 8.9999999999999997e-02 65.9723216687 27.245879236 87.5383110749
298 12 3 8.9999999999999997e-02 66.0429581322 28.592429304 87.9542992077
299 12 4 8.9999999999999997e-02 62.3833769343 27.695105917 87.9570337897
300 12 11 -4.8999999999999999e-01 66.7655806164 25.7973722334 92.8544325719
301 12 4 8.9999999999999997e-02 64.0518933223 27.5610253532 86.7192793688
302 12 2 8.9999999999999997e-02 64.2965856667 26.1950418831 88.998510543
303 12 4 8.9999999999999997e-02 63.1514978874 28.5367676322 87.3690408248
304 12 9 7.0000000000000007e-02 63.8794438878 27.9935602247 91.6429702981
305 12 1 8.9999999999999997e-02 64.2034112861 26.9127830528 91.7931576056
306 12 5 3.7000000000000000e-01 63.7932929487 29.6446395298 89.9267331207
307 12 3 8.9999999999999997e-02 67.0344922918 28.6975414368 91.4624613165
308 12 3 8.9999999999999997e-02 66.723512045 29.3242532772 90.4841893458
309 12 1 8.9999999999999997e-02 63.1652773433 27.3177064141 92.1943428147
310 12 9 -1.9000000000000000e-01 64.462680822 29.2038775272 92.2415066075
311 12 6 2.9999999999999999e-02 67.3826895819 27.4948197296 89.8210857761
312 12 10 -4.0000000000000002e-01 67.2933271245 25.9117240291 90.4223467174
313 12 5 3.7000000000000000e-01 67.3214332945 25.7771552292 91.7158377662
314 12 7 -1.9000000000000000e-01 67.424223262 28.9210546843 90.2441194921
315 12 1 8.9999999999999997e-02 67.4640846 23.4530210812 90.0343648188
316 12 1 8.9999999999999997e-02 64.9122271685 29.2572389468 92.8482905314
317 8 11 -4.8999999999999999e-01 61.1936357638 23.4799441874 91.9655193204
318 12 1 8.9999999999999997e-02 67.8188552492 24.5757244223 88.6231111145
319 12 2 8.9999999999999997e-02 67.9893708103 27.5326562443 89.1238680273
320 12 9 7.0000000000000007e-02 67.8754163901 24.5632731761 89.7768000001
321 12 1 8.9999999999999997e-02 70.2110338932 24.6926374362 90.520954894
322 12 9 -1.9000000000000000e-01 69.1512974002 24.2067891592 90.5781761257
323 12 1 8.9999999999999997e-02 70.2157482928 23.6646880816 90.0890241366
324 12 9 -1.0000000000000000e-02 68.8419058111 24.8718279659 92.0100232735
325 9 10 -4.0000000000000002e-01 73.8808573581 23.533985539 91.570767769
326 9 5 3.7000000000000000e-01 72.8341861213 23.4607231297 92.1563639782
327 12 1 8.9999999999999997e-02 70.6256063028 27.2143567651 89.3018804801
328 12 9 -1.0000000000000000e-02 71.5040499507 27.9901811509 89.9860004938
329 12 11 -4.8999999999999999e-01 70.164294146 29.1118182911 88.7045552251
330 12 5 3.7000000000000000e-01 70.6063982202 29.0428494361 89.8354593177
331 12 10 -4.0000000000000002e-01 69.9606148098 29.2188704792 91.2407905796
332 12 1 8.9999999999999997e-02 71.5372300273 27.0395716021 89.3312263904
333 12 9 -1.9000000000000000e-01 71.9656589113 27.8269965348 91.4275090501
334 12 6 2.9999999999999999e-02 68.7131845809 29.7199723587 91.4104287598
335 12 2 8.9999999999999997e-02 68.8791138909 29.1649588923 92.4216949886
336 12 9 7.0000000000000007e-02 71.2365819702 28.582542412 92.1923125678
337 9 4 8.9999999999999997e-02 73.294518543 25.6493886989 88.4094277821
338 12 1 8.9999999999999997e-02 69.4346531304 25.826750755 92.8254965548
339 9 11 -4.8999999999999999e-01 72.3732325317 24.4196622678 92.7527420437
340 12 1 8.9999999999999997e-02 72.601675817 27.1113922811 91.8967070474
341 12 1 8.9999999999999997e-02 73.0733748558 28.0024461602 91.3269034902
342 9 6 2.9999999999999999e-02 74.8052506721 24.4563838091 90.8118526464
343 9 4 8.9999999999999997e-02 73.4762961583 25.4757863196 89.9914057399
344 9 8 -2.7000000000000002e-01 74.2569497194 25.4791987556 89.0921991537
345 12 1 8.9999999999999997e-02 68.3988779004 24.3215277207 92.6360657669
346 9 3 8.9999999999999997e-02 74.924872982 26.4798684636 92.3758555344
347 10 4 8.9999999999999997e-02 22.3434417906 30.3392924755 90.9107844531
348 10 5 3.7000000000000000e-01 21.6610255098 35.8189151379 89.8009047846
349 10 11 -4.8999999999999999e-01 21.0255262265 34.9561754288 90.1454786113
350 10 9 -1.0000000000000000e-02 21.2674250279 36.2822090432 88.2535229429
351 10 3 8.9999999999999997e-02 22.3330748229 33.165932042 92.5765332884
352 10 3 8.9999999999999997e-02 21.9267961361 32.8574059838 91.0972272888
353 10 9 -1.9000000000000000e-01 22.2979961394 35.7424625438 87.1105459319
354 10 1 8.9999999999999997e-02 19.3196234723 36.3266383631 92.8078694359
355 10 1 8.9999999999999997e-02 20.2719263259 36.3810556773 88.3563301217
356 10 1 8.9999999999999997e-02 21.8655238662 35.7934444363 86.1475706439
357 10 1 8.9999999999999997e-02 21.755073701 34.349518245 87.6698492146
358 10 1 8.9999999999999997e-02 20.6618705352 35.9101207451 92.8052959336
359 10 1 8.9999999999999997e-02 21.6620161114 37.1896170312 88.4177368375
360 10 7 -1.9000000000000000e-01 22.8738989161 33.0072606588 91.8840522705
361 10 4 8.9999999999999997e-02 23.1682070017 31.1149960323 89.9562427438
362 10 8 -2.7000000000000002e-01 23.5129235351 30.5905922031 90.9344845775
363 10 6 2.9999999999999999e-02 23.107919119 31.1902631888 92.2918081293
364 10 10 -4.0000000000000002e-01 22.9536433018 35.4087039538 89.7362174856
365 2 1 8.9999999999999997e-02 29.6211751119 32.596119168 91.7480302893
366 2 9 -1.8800000000000000e-01 27.4143392932 32.7959467407 92.3300315348
367 2 9 6.7000000000000004e-02 27.4004797103 34.2090533195 92.0826090858
368 2 9 -1.0999999999999999e-02 28.5248822785 32.1241995423 91.1965500533
369 2 10 -3.9900000000000002e-01 28.1714829904 34.561191907 90.8471575572
370 2 1 8.9999999999999997e-02 28.8543721671 31.2585109125 90.2677143543
371 2 2 8.9999999999999997e-02 28.8659067559 35.8131472707 89.082435669
372 2 6 2.5999999999999999e-02 28.8432097087 35.8910555221 90.2808093445
373 2 11 -4.8999999999999999e-01 29.7989616617 33.3636670514 89.4268009659
374 2 5 3.7100000000000000e-01 28.7458729327 33.4142959632 90.3421416982
375 10 9 7.0000000000000007e-02 23.3974376094 35.3986687285 88.4259209048
376 10 6 2.9999999999999999e-02 23.6615353033 34.4896745579 91.0282519703
377 10 2 8.9999999999999997e-02 24.5983685597 33.7258443715 90.7146656377
378 10 1 8.9999999999999997e-02 24.5254991966 36.092723479 88.6154149216
379 2 4 8.9999999999999997e-02 26.6833996212 36.3735525068 90.5878692438
380 2 8 -2.7300000000000002e-01 27.4273498544 36.8682431044 90.6147359813
381 2 1 8.9999999999999997e-02 29.7790087004 33.402752767 86.1475050914
382 2 7 -1.8600000000000000e-01 29.998839615 36.7333596673 90.9683332081