LAMMPS Description

     9108  atoms
     8832  bonds
     17568  angles
     27840  dihedrals
     480  impropers

     12  atom types
     12  bond types
     25  angle types
     35  dihedral types
     1  improper types

  0.0 110.00 xlo xhi
  0.0 110.00 ylo yhi
  0.0 50.00 zlo zhi

Masses

	1      1.008  # HRA2
	2      1.008  # HGA1
	3      1.008  # HGA2
	4      1.008  # HGA3
	5     12.011  # CG2R53
	6     12.011  # CG311
	7     12.011  # CG321
	8     12.011  # CG331
	9     12.011  # CG3C52
	10    14.007  # NG2R53
	11   15.9994  # OG2D1
    12 107.8682  # Ag

Bond Coeffs

	1   13.00902   1.530   # CG2R53   CG3C52 
	2   19.94716   1.380   # CG2R53   NG2R53 
	3   24.71714   1.235   # CG2R53   OG2D1  
	4   9.64836    1.538   # CG311    CG321  
	5   9.64836    1.538   # CG311    CG331  
	6   13.39929   1.111   # CG311    HGA1 
	7   13.87629   1.430   # CG311    NG2R53 
	8   13.39929   1.111   # CG321    HGA2 
	9   13.96301   1.111   # CG331    HGA3 
	10  8.45586    1.530   # CG3C52   CG3C52 
	11  13.31256   1.100   # CG3C52   HRA2 
	12  16.04446   1.450   # CG3C52   NG2R53 

Angle Coeffs

	1   3.03544	106.5  0.00000	0.000    # CG2R53   CG3C52   CG3C52
	2   2.51508	111.0  0.00000	0.000    # CG2R53   CG3C52   HRA2
	3   2.16817	120.0  0.00000	0.000    # CG2R53   NG2R53   CG311 
	4   3.25226	111.0  0.00000	0.000    # CG2R53   NG2R53   CG3C52
	5   2.53025	113.5  0.48394	2.561    # CG311    CG321    CG311 
	6   1.44964	110.1  0.97698	2.179    # CG311    CG321    HGA2
	7   1.44964	110.1  0.97698	2.179    # CG311    CG331    HGA3
	8   2.16817	116.0  0.00000	0.000    # CG311    NG2R53   CG3C52
	9   2.53025	113.5  0.48394	2.561    # CG321    CG311    CG321 
	10  2.31344	114.0  0.34691	2.561    # CG321    CG311    CG331 
	11  1.49604	110.1  0.97698	2.179    # CG321    CG311    HGA1
	12  3.03544	113.5  0.00000	0.000    # CG321    CG311    NG2R53
	13  1.49604	110.1  0.97698	2.179    # CG331    CG311    HGA1
	14  3.03544	113.5  0.00000	0.000    # CG331    CG311    NG2R53
	15  5.20361	105.5  0.00000	0.000    # CG3C52   CG2R53   NG2R53
	16  2.81862	126.7  0.00000	0.000    # CG3C52   CG2R53   OG2D1 
	17  2.51508	109.5  0.48394	2.561    # CG3C52   CG3C52   CG3C52
	18  1.51772	111.4  0.97698	2.179    # CG3C52   CG3C52   HRA2
	19  3.90271	104.5  0.00000	0.000    # CG3C52   CG3C52   NG2R53
	20  2.08144	108.0  0.00000	0.000    # HGA1 CG311    NG2R53  
	21  1.53940	109.0  0.23416	1.802    # HGA2 CG321    HGA2
	22  1.53940	108.4  0.23416	1.802    # HGA3 CG331    HGA3
	23  1.66949	106.8  0.23416	1.802    # HRA2 CG3C52   HRA2
	24  2.55844	111.0  0.00000	0.000    # HRA2 CG3C52   NG2R53  
	25  2.81862	127.8  0.00000	0.000    # NG2R53   CG2R53   OG2D1 

Dihedral Coeffs

	1   0.01474	3	180	 0   # CG2R53   CG3C52   CG3C52   CG3C52  
	2   0.00000	3	0    1   # CG2R53   CG3C52   CG3C52   HRA2  
	3   0.03903	1	0    1   # CG2R53   NG2R53   CG311    CG321   
	4   0.03903	1	0    1   # CG2R53   NG2R53   CG311    CG331   
	5   0.00000	1	0    1   # CG2R53   NG2R53   CG311    HGA1  
	6   0.10017	3	180	 0   # CG2R53   NG2R53   CG3C52   CG3C52  
	7   0.00000	3	0    1   # CG2R53   NG2R53   CG3C52   HRA2  
	8   0.00867	3	0    1   # CG311    CG321    CG311    CG321   
	9   0.00867	3	0    1   # CG311    CG321    CG311    CG331   
	10  0.00846	3	0    1   # CG311    CG321    CG311    HGA1  
	11  0.00867	3	0    1   # CG311    CG321    CG311    NG2R53  
	12  0.04857	2	180	 1   # CG311    NG2R53   CG2R53   CG3C52  
	13  0.10841	2	180	 1   # CG311    NG2R53   CG2R53   OG2D1   
	14  0.02905	3	0    1   # CG311    NG2R53   CG3C52   CG3C52  
	15  0.00000	3	0    1   # CG311    NG2R53   CG3C52   HRA2  
	16  0.00867	3	0    1   # CG321    CG311    CG321    HGA2  
	17  0.00867	3	0    1   # CG321    CG311    CG331    HGA3  
	18  0.00000	1	0    1   # CG321    CG311    NG2R53   CG3C52  
	19  0.00867	3	0    1   # CG331    CG311    CG321    HGA2  
	20  0.00000	1	0    1   # CG331    CG311    NG2R53   CG3C52  
	21  0.01735	2	180	 0   # CG3C52   CG2R53   NG2R53   CG3C52  
	22  0.04553	3	180	 0   # CG3C52   CG3C52   CG2R53   NG2R53  
	23  0.00347	3	0    1   # CG3C52   CG3C52   CG2R53   OG2D1   
	24  0.00824	3	0    1   # CG3C52   CG3C52   CG3C52   HRA2  
	25  0.09236	3	0    0   # CG3C52   CG3C52   CG3C52   NG2R53  
	26  0.11231	2	180	 1   # CG3C52   NG2R53   CG2R53   OG2D1   
	27  0.00000	1	0    1   # CG3C52   NG2R53   CG311    HGA1  
	28  0.00846	3	0    1   # HGA1 CG311    CG321    HGA2  
	29  0.00846	3	0    1   # HGA1 CG311    CG331    HGA3  
	30  0.00867	3	0    1   # HGA2 CG321    CG311    NG2R53    
	31  0.00867	3	0    1   # HGA3 CG331    CG311    NG2R53    
	32  0.00000	3	180	 1   # HRA2 CG3C52   CG2R53   NG2R53    
	33  0.00000	3	0  	 1   # HRA2 CG3C52   CG2R53   OG2D1     
	34  0.00824	3	0  	 1   # HRA2 CG3C52   CG3C52   HRA2  
	35  0.00000	3	180	 1   # HRA2 CG3C52   CG3C52   NG2R53    

Improper Coeffs

	1   3.90271	0.00000	 # CG2R53   CG3C52   NG2R53   OG2D1

Atoms

1 1 8 -0.273 7.719 10.197 10.584 # CG331
2 1 4 0.09 6.961 10.533 11.327 # HGA3
3 1 4 0.09 7.364 9.248 10.126 # HGA3
4 1 4 0.09 7.765 10.977 9.798 # HGA3
5 1 6 0.026 9.08 10.008 11.277 # CG311
6 1 2 0.09 9.417 11.038 11.548 # HGA1
7 1 7 -0.186 10.155 9.387 10.311 # CG321
8 1 3 0.09 9.672 8.677 9.605 # HGA2
9 1 3 0.09 10.872 8.774 10.899 # HGA2
10 1 10 -0.399 8.853 9.265 12.565 # NG2R53
11 1 5 0.371 10.125 9.338 13.314 # CG2R53
12 1 11 -0.49 10.052 10.369 14.314 # OG2D1
13 1 9 -0.011 10.378 7.995 13.954 # CG3C52
14 1 1 0.09 11.467 7.825 14.117 # HRA2
15 1 1 0.09 9.825 7.917 14.92 # HRA2
16 1 9 -0.188 9.798 7.03 12.959 # CG3C52
17 1 1 0.09 9.436 6.098 13.452 # HRA2
18 1 1 0.09 10.567 6.769 12.195 # HRA2
19 1 9 0.067 8.661 7.804 12.309 # CG3C52
20 1 1 0.09 8.563 7.526 11.235 # HRA2
21 1 1 0.09 7.704 7.5 12.793 # HRA2
22 1 6 0.026 11.004 10.433 9.53 # CG311
23 1 2 0.09 11.612 10.892 10.334 # HGA1
24 1 7 -0.186 11.998 9.709 8.541 # CG321
25 1 3 0.09 11.53 9.622 7.549 # HGA2
26 1 3 0.09 12.119 8.647 8.861 # HGA2
27 1 10 -0.399 10.107 11.522 8.975 # NG2R53
28 1 5 0.371 9.434 11.174 7.69 # CG2R53
29 1 11 -0.49 9.134 9.776 7.512 # OG2D1
30 1 9 -0.011 10.135 11.8 6.51 # CG3C52
31 1 1 0.09 9.381 12.249 5.825 # HRA2
32 1 1 0.09 10.718 11.043 5.944 # HRA2
33 1 9 -0.188 11.024 12.865 7.107 # CG3C52
34 1 1 0.09 12.077 12.747 6.767 # HRA2
35 1 1 0.09 10.672 13.877 6.797 # HRA2
36 1 9 0.067 10.923 12.717 8.622 # CG3C52
37 1 1 0.09 10.4 13.614 9.031 # HRA2
38 1 1 0.09 11.928 12.728 9.096 # HRA2
39 1 6 0.026 13.453 10.289 8.417 # CG311
40 1 2 0.09 13.371 11.362 8.146 # HGA1
41 1 7 -0.186 14.232 10.142 9.783 # CG321
42 1 3 0.09 15.114 9.479 9.641 # HGA2
43 1 3 0.09 13.623 9.583 10.527 # HGA2
44 1 10 -0.399 14.202 9.558 7.325 # NG2R53
45 1 5 0.371 15.524 10.228 7.183 # CG2R53
46 1 11 -0.49 16.555 9.253 7.413 # OG2D1
47 1 9 -0.011 15.676 10.786 5.778 # CG3C52
48 1 1 0.09 15.432 11.874 5.794 # HRA2
49 1 1 0.09 16.701 10.638 5.363 # HRA2
50 1 9 -0.188 14.643 10.044 4.989 # CG3C52
51 1 1 0.09 15.05 9.062 4.649 # HRA2
52 1 1 0.09 14.282 10.633 4.115 # HRA2
53 1 9 0.067 13.555 9.828 6.008 # CG3C52
54 1 1 0.09 12.935 10.75 6.015 # HRA2
55 1 1 0.09 12.921 8.961 5.713 # HRA2
56 1 6 0.026 14.703 11.497 10.396 # CG311
57 1 2 0.09 14.842 12.169 9.532 # HGA1
58 1 7 -0.186 16.093 11.376 11.141 # CG321
59 1 3 0.09 16.089 10.394 11.669 # HGA2
60 1 3 0.09 16.153 12.105 11.967 # HGA2
61 1 10 -0.399 13.581 12.062 11.231 # NG2R53
62 1 5 0.371 13.709 11.571 12.623 # CG2R53
63 1 11 -0.49 12.916 10.386 12.808 # OG2D1
64 1 9 -0.011 13.245 12.672 13.564 # CG3C52
65 1 1 0.09 14.016 12.822 14.354 # HRA2
66 1 1 0.09 12.267 12.427 14.04 # HRA2
67 1 9 -0.188 13.115 13.907 12.698 # CG3C52
68 1 1 0.09 12.037 14.131 12.517 # HRA2
69 1 1 0.09 13.608 14.79 13.167 # HRA2
70 1 9 0.067 13.78 13.524 11.392 # CG3C52
71 1 1 0.09 14.853 13.823 11.435 # HRA2
72 1 1 0.09 13.301 14.069 10.547 # HRA2
73 1 6 0.026 17.384 11.447 10.229 # CG311
74 1 2 0.09 17.11 10.914 9.296 # HGA1
75 1 7 -0.186 18.56 10.619 10.84 # CG321
76 1 3 0.09 18.202 9.601 11.113 # HGA2
77 1 3 0.09 18.871 11.099 11.789 # HGA2
78 1 10 -0.399 17.888 12.816 9.82 # NG2R53
79 1 5 0.371 16.765 13.598 9.279 # CG2R53
80 1 11 -0.49 16.64 13.367 7.864 # OG2D1
81 1 9 -0.011 17.023 15.065 9.558 # CG3C52
82 1 1 0.09 17.456 15.573 8.665 # HRA2
83 1 1 0.09 16.071 15.567 9.848 # HRA2
84 1 9 -0.188 18.016 15.079 10.698 # CG3C52
85 1 1 0.09 17.589 15.595 11.591 # HRA2
86 1 1 0.09 18.952 15.6 10.385 # HRA2
87 1 9 0.067 18.306 13.619 11.001 # CG3C52
88 1 1 0.09 19.397 13.487 11.154 # HRA2
89 1 1 0.09 17.809 13.346 11.953 # HRA2
90 1 6 0.026 19.777 10.471 9.877 # CG311
91 1 2 0.09 20.078 11.509 9.601 # HGA1
92 1 7 -0.186 21.025 9.804 10.583 # CG321
93 1 3 0.09 21.594 9.194 9.844 # HGA2
94 1 3 0.09 20.673 9.099 11.371 # HGA2
95 1 10 -0.399 19.3 9.769 8.63 # NG2R53
96 1 5 0.371 19.48 8.307 8.797 # CG2R53
97 1 11 -0.49 18.241 7.697 9.2 # OG2D1
98 1 9 -0.011 19.973 7.718 7.484 # CG3C52
99 1 1 0.09 19.209 7.058 7.013 # HRA2
100 1 1 0.09 20.9 7.131 7.676 # HRA2
101 1 9 -0.188 20.27 8.904 6.594 # CG3C52
102 1 1 0.09 21.267 8.809 6.101 # HRA2
103 1 1 0.09 19.476 9.003 5.816 # HRA2
104 1 9 0.067 20.229 10.099 7.522 # CG3C52
105 1 1 0.09 19.854 10.996 6.976 # HRA2
106 1 1 0.09 21.261 10.311 7.875 # HRA2
107 1 6 0.026 22.049 10.8 11.199 # CG311
108 1 2 0.09 22.445 11.378 10.329 # HGA1
109 1 7 -0.186 23.265 9.996 11.824 # CG321
110 1 3 0.09 23.262 8.963 11.401 # HGA2
111 1 3 0.09 23.098 9.741 12.889 # HGA2
112 1 10 -0.399 21.289 11.737 12.105 # NG2R53
113 1 5 0.371 21.333 11.281 13.508 # CG2R53
114 1 11 -0.49 20.294 10.32 13.763 # OG2D1
115 1 9 -0.011 21.16 12.51 14.386 # CG3C52
116 1 1 0.09 20.112 12.599 14.755 # HRA2
117 1 1 0.09 21.859 12.45 15.251 # HRA2
118 1 9 -0.188 21.502 13.682 13.483 # CG3C52
119 1 1 0.09 22.286 14.333 13.935 # HRA2
120 1 1 0.09 20.586 14.289 13.283 # HRA2
121 1 9 0.067 21.989 13.037 12.197 # CG3C52
122 1 1 0.09 21.74 13.676 11.319 # HRA2
123 1 1 0.09 23.091 12.932 12.252 # HRA2
124 1 6 0.026 24.704 10.601 11.577 # CG311
125 1 2 0.09 24.624 11.689 11.363 # HGA1
126 1 7 -0.186 25.288 9.898 10.289 # CG321
127 1 3 0.09 24.459 9.848 9.554 # HGA2
128 1 3 0.09 25.511 8.834 10.542 # HGA2
129 1 10 -0.399 25.564 10.369 12.803 # NG2R53
130 1 5 0.371 26.872 11.024 12.567 # CG2R53
131 1 11 -0.49 27.9 10.291 13.261 # OG2D1
132 1 9 -0.011 26.827 12.444 13.078 # CG3C52
133 1 1 0.09 26.379 13.106 12.3 # HRA2
134 1 1 0.09 27.837 12.825 13.353 # HRA2
135 1 9 -0.188 25.92 12.351 14.262 # CG3C52
136 1 1 0.09 26.518 12.148 15.182 # HRA2
137 1 1 0.09 25.34 13.294 14.401 # HRA2
138 1 9 0.067 25.015 11.168 13.952 # CG3C52
139 1 1 0.09 23.994 11.559 13.785 # HRA2
140 1 1 0.09 24.958 10.506 14.847 # HRA2
141 1 6 0.026 26.541 10.553 9.586 # CG311
142 1 2 0.09 26.727 11.538 10.07 # HGA1
143 1 7 -0.186 27.825 9.7 9.829 # CG321
144 1 3 0.09 27.789 8.76 9.233 # HGA2
145 1 3 0.09 27.849 9.363 10.885 # HGA2
146 1 10 -0.399 26.41 10.82 8.101 # NG2R53
147 1 5 0.371 25.299 11.774 7.795 # CG2R53
148 1 11 -0.49 24.792 12.503 8.931 # OG2D1
149 1 9 -0.011 24.202 11.071 7.033 # CG3C52
150 1 1 0.09 23.419 10.721 7.735 # HRA2
151 1 1 0.09 23.752 11.737 6.263 # HRA2
152 1 9 -0.188 24.895 9.893 6.411 # CG3C52
153 1 1 0.09 25.31 10.182 5.416 # HRA2
154 1 1 0.09 24.2 9.03 6.287 # HRA2
155 1 9 0.067 26.027 9.572 7.37 # CG3C52
156 1 1 0.09 25.715 8.732 8.031 # HRA2
157 1 1 0.09 26.906 9.208 6.789 # HRA2
158 1 8 -0.273 30.321 9.728 10.201 # CG331
159 1 4 0.09 30.368 8.654 9.907 # HGA3
160 1 4 0.09 30.182 9.765 11.305 # HGA3
161 1 4 0.09 31.297 10.215 9.987 # HGA3
162 1 6 0.026 29.14 10.45 9.503 # CG311
163 1 2 0.09 29.063 11.453 9.99 # HGA1
164 1 10 -0.399 29.235 10.625 8.005 # NG2R53
165 1 5 0.371 29.935 11.889 7.652 # CG2R53
166 1 11 -0.49 31.072 12.149 8.502 # OG2D1
167 1 9 -0.011 30.404 11.717 6.212 # CG3C52
168 1 1 0.09 29.672 12.198 5.524 # HRA2
169 1 1 0.09 31.411 12.169 6.05 # HRA2
170 1 9 -0.188 30.431 10.212 5.98 # CG3C52
171 1 1 0.09 31.433 9.87 5.628 # HRA2
172 1 1 0.09 29.656 9.925 5.231 # HRA2
173 1 9 0.067 30.089 9.614 7.333 # CG3C52
174 1 1 0.09 29.536 8.654 7.214 # HRA2
175 1 1 0.09 31.058 9.429 7.85 # HRA2
176 2 8 -0.273 7.719 23.197 10.584 # CG331
177 2 4 0.09 6.961 23.533 11.327 # HGA3
178 2 4 0.09 7.364 22.248 10.126 # HGA3
179 2 4 0.09 7.765 23.977 9.798 # HGA3
180 2 6 0.026 9.08 23.008 11.277 # CG311
181 2 2 0.09 9.417 24.038 11.548 # HGA1
182 2 7 -0.186 10.155 22.387 10.311 # CG321
183 2 3 0.09 9.672 21.677 9.605 # HGA2
184 2 3 0.09 10.872 21.774 10.899 # HGA2
185 2 10 -0.399 8.853 22.265 12.565 # NG2R53
186 2 5 0.371 10.125 22.338 13.314 # CG2R53
187 2 11 -0.49 10.052 23.369 14.314 # OG2D1
188 2 9 -0.011 10.378 20.995 13.954 # CG3C52
189 2 1 0.09 11.467 20.825 14.117 # HRA2
190 2 1 0.09 9.825 20.917 14.92 # HRA2
191 2 9 -0.188 9.798 20.03 12.959 # CG3C52
192 2 1 0.09 9.436 19.098 13.452 # HRA2
193 2 1 0.09 10.567 19.769 12.195 # HRA2
194 2 9 0.067 8.661 20.804 12.309 # CG3C52
195 2 1 0.09 8.563 20.526 11.235 # HRA2
196 2 1 0.09 7.704 20.5 12.793 # HRA2
197 2 6 0.026 11.004 23.433 9.53 # CG311
198 2 2 0.09 11.612 23.892 10.334 # HGA1
199 2 7 -0.186 11.998 22.709 8.541 # CG321
200 2 3 0.09 11.53 22.622 7.549 # HGA2
201 2 3 0.09 12.119 21.647 8.861 # HGA2
202 2 10 -0.399 10.107 24.522 8.975 # NG2R53
203 2 5 0.371 9.434 24.174 7.69 # CG2R53
204 2 11 -0.49 9.134 22.776 7.512 # OG2D1
205 2 9 -0.011 10.135 24.8 6.51 # CG3C52
206 2 1 0.09 9.381 25.249 5.825 # HRA2
207 2 1 0.09 10.718 24.043 5.944 # HRA2
208 2 9 -0.188 11.024 25.865 7.107 # CG3C52
209 2 1 0.09 12.077 25.747 6.767 # HRA2
210 2 1 0.09 10.672 26.877 6.797 # HRA2
211 2 9 0.067 10.923 25.717 8.622 # CG3C52
212 2 1 0.09 10.4 26.614 9.031 # HRA2
213 2 1 0.09 11.928 25.728 9.096 # HRA2
214 2 6 0.026 13.453 23.289 8.417 # CG311
215 2 2 0.09 13.371 24.362 8.146 # HGA1
216 2 7 -0.186 14.232 23.142 9.783 # CG321
217 2 3 0.09 15.114 22.479 9.641 # HGA2
218 2 3 0.09 13.623 22.583 10.527 # HGA2
219 2 10 -0.399 14.202 22.558 7.325 # NG2R53
220 2 5 0.371 15.524 23.228 7.183 # CG2R53
221 2 11 -0.49 16.555 22.253 7.413 # OG2D1
222 2 9 -0.011 15.676 23.786 5.778 # CG3C52
223 2 1 0.09 15.432 24.874 5.794 # HRA2
224 2 1 0.09 16.701 23.638 5.363 # HRA2
225 2 9 -0.188 14.643 23.044 4.989 # CG3C52
226 2 1 0.09 15.05 22.062 4.649 # HRA2
227 2 1 0.09 14.282 23.633 4.115 # HRA2
228 2 9 0.067 13.555 22.828 6.008 # CG3C52
229 2 1 0.09 12.935 23.75 6.015 # HRA2
230 2 1 0.09 12.921 21.961 5.713 # HRA2
231 2 6 0.026 14.703 24.497 10.396 # CG311
232 2 2 0.09 14.842 25.169 9.532 # HGA1
233 2 7 -0.186 16.093 24.376 11.141 # CG321
234 2 3 0.09 16.089 23.394 11.669 # HGA2
235 2 3 0.09 16.153 25.105 11.967 # HGA2
236 2 10 -0.399 13.581 25.062 11.231 # NG2R53
237 2 5 0.371 13.709 24.571 12.623 # CG2R53
238 2 11 -0.49 12.916 23.386 12.808 # OG2D1
239 2 9 -0.011 13.245 25.672 13.564 # CG3C52
240 2 1 0.09 14.016 25.822 14.354 # HRA2
241 2 1 0.09 12.267 25.427 14.04 # HRA2
242 2 9 -0.188 13.115 26.907 12.698 # CG3C52
243 2 1 0.09 12.037 27.131 12.517 # HRA2
244 2 1 0.09 13.608 27.79 13.167 # HRA2
245 2 9 0.067 13.78 26.524 11.392 # CG3C52
246 2 1 0.09 14.853 26.823 11.435 # HRA2
247 2 1 0.09 13.301 27.069 10.547 # HRA2
248 2 6 0.026 17.384 24.447 10.229 # CG311
249 2 2 0.09 17.11 23.914 9.296 # HGA1
250 2 7 -0.186 18.56 23.619 10.84 # CG321
251 2 3 0.09 18.202 22.601 11.113 # HGA2
252 2 3 0.09 18.871 24.099 11.789 # HGA2
253 2 10 -0.399 17.888 25.816 9.82 # NG2R53
254 2 5 0.371 16.765 26.598 9.279 # CG2R53
255 2 11 -0.49 16.64 26.367 7.864 # OG2D1
256 2 9 -0.011 17.023 28.065 9.558 # CG3C52
257 2 1 0.09 17.456 28.573 8.665 # HRA2
258 2 1 0.09 16.071 28.567 9.848 # HRA2
259 2 9 -0.188 18.016 28.079 10.698 # CG3C52
260 2 1 0.09 17.589 28.595 11.591 # HRA2
261 2 1 0.09 18.952 28.6 10.385 # HRA2
262 2 9 0.067 18.306 26.619 11.001 # CG3C52
263 2 1 0.09 19.397 26.487 11.154 # HRA2
264 2 1 0.09 17.809 26.346 11.953 # HRA2
265 2 6 0.026 19.777 23.471 9.877 # CG311
266 2 2 0.09 20.078 24.509 9.601 # HGA1
267 2 7 -0.186 21.025 22.804 10.583 # CG321
268 2 3 0.09 21.594 22.194 9.844 # HGA2
269 2 3 0.09 20.673 22.099 11.371 # HGA2
270 2 10 -0.399 19.3 22.769 8.63 # NG2R53
271 2 5 0.371 19.48 21.307 8.797 # CG2R53
272 2 11 -0.49 18.241 20.697 9.2 # OG2D1
273 2 9 -0.011 19.973 20.718 7.484 # CG3C52
274 2 1 0.09 19.209 20.058 7.013 # HRA2
275 2 1 0.09 20.9 20.131 7.676 # HRA2
276 2 9 -0.188 20.27 21.904 6.594 # CG3C52
277 2 1 0.09 21.267 21.809 6.101 # HRA2
278 2 1 0.09 19.476 22.003 5.816 # HRA2
279 2 9 0.067 20.229 23.099 7.522 # CG3C52
280 2 1 0.09 19.854 23.996 6.976 # HRA2
281 2 1 0.09 21.261 23.311 7.875 # HRA2
282 2 6 0.026 22.049 23.8 11.199 # CG311
283 2 2 0.09 22.445 24.378 10.329 # HGA1
284 2 7 -0.186 23.265 22.996 11.824 # CG321
285 2 3 0.09 23.262 21.963 11.401 # HGA2
286 2 3 0.09 23.098 22.741 12.889 # HGA2
287 2 10 -0.399 21.289 24.737 12.105 # NG2R53
288 2 5 0.371 21.333 24.281 13.508 # CG2R53
289 2 11 -0.49 20.294 23.32 13.763 # OG2D1
290 2 9 -0.011 21.16 25.51 14.386 # CG3C52
291 2 1 0.09 20.112 25.599 14.755 # HRA2
292 2 1 0.09 21.859 25.45 15.251 # HRA2
293 2 9 -0.188 21.502 26.682 13.483 # CG3C52
294 2 1 0.09 22.286 27.333 13.935 # HRA2
295 2 1 0.09 20.586 27.289 13.283 # HRA2
296 2 9 0.067 21.989 26.037 12.197 # CG3C52
297 2 1 0.09 21.74 26.676 11.319 # HRA2
298 2 1 0.09 23.091 25.932 12.252 # HRA2
299 2 6 0.026 24.704 23.601 11.577 # CG311
300 2 2 0.09 24.624 24.689 11.363 # HGA1
301 2 7 -0.186 25.288 22.898 10.289 # CG321
302 2 3 0.09 24.459 22.848 9.554 # HGA2
303 2 3 0.09 25.511 21.834 10.542 # HGA2
304 2 10 -0.399 25.564 23.369 12.803 # NG2R53
305 2 5 0.371 26.872 24.024 12.567 # CG2R53
306 2 11 -0.49 27.9 23.291 13.261 # OG2D1
307 2 9 -0.011 26.827 25.444 13.078 # CG3C52
308 2 1 0.09 26.379 26.106 12.3 # HRA2
309 2 1 0.09 27.837 25.825 13.353 # HRA2
310 2 9 -0.188 25.92 25.351 14.262 # CG3C52
311 2 1 0.09 26.518 25.148 15.182 # HRA2
312 2 1 0.09 25.34 26.294 14.401 # HRA2
313 2 9 0.067 25.015 24.168 13.952 # CG3C52
314 2 1 0.09 23.994 24.559 13.785 # HRA2
315 2 1 0.09 24.958 23.506 14.847 # HRA2
316 2 6 0.026 26.541 23.553 9.586 # CG311
317 2 2 0.09 26.727 24.538 10.07 # HGA1
318 2 7 -0.186 27.825 22.7 9.829 # CG321
319 2 3 0.09 27.789 21.76 9.233 # HGA2
320 2 3 0.09 27.849 22.363 10.885 # HGA2
321 2 10 -0.399 26.41 23.82 8.101 # NG2R53
322 2 5 0.371 25.299 24.774 7.795 # CG2R53
323 2 11 -0.49 24.792 25.503 8.931 # OG2D1
324 2 9 -0.011 24.202 24.071 7.033 # CG3C52
325 2 1 0.09 23.419 23.721 7.735 # HRA2
326 2 1 0.09 23.752 24.737 6.263 # HRA2
327 2 9 -0.188 24.895 22.893 6.411 # CG3C52
328 2 1 0.09 25.31 23.182 5.416 # HRA2
329 2 1 0.09 24.2 22.03 6.287 # HRA2
330 2 9 0.067 26.027 22.572 7.37 # CG3C52
331 2 1 0.09 25.715 21.732 8.031 # HRA2
332 2 1 0.09 26.906 22.208 6.789 # HRA2
333 2 8 -0.273 30.321 22.728 10.201 # CG331
334 2 4 0.09 30.368 21.654 9.907 # HGA3
335 2 4 0.09 30.182 22.765 11.305 # HGA3
336 2 4 0.09 31.297 23.215 9.987 # HGA3
337 2 6 0.026 29.14 23.45 9.503 # CG311
338 2 2 0.09 29.063 24.453 9.99 # HGA1
339 2 10 -0.399 29.235 23.625 8.005 # NG2R53
340 2 5 0.371 29.935 24.889 7.652 # CG2R53
341 2 11 -0.49 31.072 25.149 8.502 # OG2D1
342 2 9 -0.011 30.404 24.717 6.212 # CG3C52
343 2 1 0.09 29.672 25.198 5.524 # HRA2
344 2 1 0.09 31.411 25.169 6.05 # HRA2
345 2 9 -0.188 30.431 23.212 5.98 # CG3C52
346 2 1 0.09 31.433 22.87 5.628 # HRA2
347 2 1 0.09 29.656 22.925 5.231 # HRA2
348 2 9 0.067 30.089 22.614 7.333 # CG3C52
349 2 1 0.09 29.536 21.654 7.214 # HRA2
350 2 1 0.09 31.058 22.429 7.85 # HRA2
351 3 8 -0.273 7.719 36.197 10.584 # CG331
352 3 4 0.09 6.961 36.533 11.327 # HGA3
353 3 4 0.09 7.364 35.248 10.126 # HGA3
354 3 4 0.09 7.765 36.977 9.798 # HGA3
355 3 6 0.026 9.08 36.008 11.277 # CG311
356 3 2 0.09 9.417 37.038 11.548 # HGA1
357 3 7 -0.186 10.155 35.387 10.311 # CG321
358 3 3 0.09 9.672 34.677 9.605 # HGA2
359 3 3 0.09 10.872 34.774 10.899 # HGA2
360 3 10 -0.399 8.853 35.265 12.565 # NG2R53
361 3 5 0.371 10.125 35.338 13.314 # CG2R53
362 3 11 -0.49 10.052 36.369 14.314 # OG2D1
363 3 9 -0.011 10.378 33.995 13.954 # CG3C52
364 3 1 0.09 11.467 33.825 14.117 # HRA2
365 3 1 0.09 9.825 33.917 14.92 # HRA2
366 3 9 -0.188 9.798 33.03 12.959 # CG3C52
367 3 1 0.09 9.436 32.098 13.452 # HRA2
368 3 1 0.09 10.567 32.769 12.195 # HRA2
369 3 9 0.067 8.661 33.804 12.309 # CG3C52
370 3 1 0.09 8.563 33.526 11.235 # HRA2
371 3 1 0.09 7.704 33.5 12.793 # HRA2
372 3 6 0.026 11.004 36.433 9.53 # CG311
373 3 2 0.09 11.612 36.892 10.334 # HGA1
374 3 7 -0.186 11.998 35.709 8.541 # CG321
375 3 3 0.09 11.53 35.622 7.549 # HGA2
376 3 3 0.09 12.119 34.647 8.861 # HGA2
377 3 10 -0.399 10.107 37.522 8.975 # NG2R53
378 3 5 0.371 9.434 37.174 7.69 # CG2R53
379 3 11 -0.49 9.134 35.776 7.512 # OG2D1
380 3 9 -0.011 10.135 37.8 6.51 # CG3C52
381 3 1 0.09 9.381 38.249 5.825 # HRA2
382 3 1 0.09 10.718 37.043 5.944 # HRA2
383 3 9 -0.188 11.024 38.865 7.107 # CG3C52
384 3 1 0.09 12.077 38.747 6.767 # HRA2
385 3 1 0.09 10.672 39.877 6.797 # HRA2
386 3 9 0.067 10.923 38.717 8.622 # CG3C52
387 3 1 0.09 10.4 39.614 9.031 # HRA2
388 3 1 0.09 11.928 38.728 9.096 # HRA2
389 3 6 0.026 13.453 36.289 8.417 # CG311
390 3 2 0.09 13.371 37.362 8.146 # HGA1
391 3 7 -0.186 14.232 36.142 9.783 # CG321
392 3 3 0.09 15.114 35.479 9.641 # HGA2
393 3 3 0.09 13.623 35.583 10.527 # HGA2
394 3 10 -0.399 14.202 35.558 7.325 # NG2R53
395 3 5 0.371 15.524 36.228 7.183 # CG2R53
396 3 11 -0.49 16.555 35.253 7.413 # OG2D1
397 3 9 -0.011 15.676 36.786 5.778 # CG3C52
398 3 1 0.09 15.432 37.874 5.794 # HRA2
399 3 1 0.09 16.701 36.638 5.363 # HRA2
400 3 9 -0.188 14.643 36.044 4.989 # CG3C52
401 3 1 0.09 15.05 35.062 4.649 # HRA2
402 3 1 0.09 14.282 36.633 4.115 # HRA2
403 3 9 0.067 13.555 35.828 6.008 # CG3C52
404 3 1 0.09 12.935 36.75 6.015 # HRA2
405 3 1 0.09 12.921 34.961 5.713 # HRA2
406 3 6 0.026 14.703 37.497 10.396 # CG311
407 3 2 0.09 14.842 38.169 9.532 # HGA1
408 3 7 -0.186 16.093 37.376 11.141 # CG321
409 3 3 0.09 16.089 36.394 11.669 # HGA2
410 3 3 0.09 16.153 38.105 11.967 # HGA2
411 3 10 -0.399 13.581 38.062 11.231 # NG2R53
412 3 5 0.371 13.709 37.571 12.623 # CG2R53
413 3 11 -0.49 12.916 36.386 12.808 # OG2D1
414 3 9 -0.011 13.245 38.672 13.564 # CG3C52
415 3 1 0.09 14.016 38.822 14.354 # HRA2
416 3 1 0.09 12.267 38.427 14.04 # HRA2
417 3 9 -0.188 13.115 39.907 12.698 # CG3C52
418 3 1 0.09 12.037 40.131 12.517 # HRA2
419 3 1 0.09 13.608 40.79 13.167 # HRA2
420 3 9 0.067 13.78 39.524 11.392 # CG3C52
421 3 1 0.09 14.853 39.823 11.435 # HRA2
422 3 1 0.09 13.301 40.069 10.547 # HRA2
423 3 6 0.026 17.384 37.447 10.229 # CG311
424 3 2 0.09 17.11 36.914 9.296 # HGA1
425 3 7 -0.186 18.56 36.619 10.84 # CG321
426 3 3 0.09 18.202 35.601 11.113 # HGA2
427 3 3 0.09 18.871 37.099 11.789 # HGA2
428 3 10 -0.399 17.888 38.816 9.82 # NG2R53
429 3 5 0.371 16.765 39.598 9.279 # CG2R53
430 3 11 -0.49 16.64 39.367 7.864 # OG2D1
431 3 9 -0.011 17.023 41.065 9.558 # CG3C52
432 3 1 0.09 17.456 41.573 8.665 # HRA2
433 3 1 0.09 16.071 41.567 9.848 # HRA2
434 3 9 -0.188 18.016 41.079 10.698 # CG3C52
435 3 1 0.09 17.589 41.595 11.591 # HRA2
436 3 1 0.09 18.952 41.6 10.385 # HRA2
437 3 9 0.067 18.306 39.619 11.001 # CG3C52
438 3 1 0.09 19.397 39.487 11.154 # HRA2
439 3 1 0.09 17.809 39.346 11.953 # HRA2
440 3 6 0.026 19.777 36.471 9.877 # CG311
441 3 2 0.09 20.078 37.509 9.601 # HGA1
442 3 7 -0.186 21.025 35.804 10.583 # CG321
443 3 3 0.09 21.594 35.194 9.844 # HGA2
444 3 3 0.09 20.673 35.099 11.371 # HGA2
445 3 10 -0.399 19.3 35.769 8.63 # NG2R53
446 3 5 0.371 19.48 34.307 8.797 # CG2R53
447 3 11 -0.49 18.241 33.697 9.2 # OG2D1
448 3 9 -0.011 19.973 33.718 7.484 # CG3C52
449 3 1 0.09 19.209 33.058 7.013 # HRA2
450 3 1 0.09 20.9 33.131 7.676 # HRA2
451 3 9 -0.188 20.27 34.904 6.594 # CG3C52
452 3 1 0.09 21.267 34.809 6.101 # HRA2
453 3 1 0.09 19.476 35.003 5.816 # HRA2
454 3 9 0.067 20.229 36.099 7.522 # CG3C52
455 3 1 0.09 19.854 36.996 6.976 # HRA2
456 3 1 0.09 21.261 36.311 7.875 # HRA2
457 3 6 0.026 22.049 36.8 11.199 # CG311
458 3 2 0.09 22.445 37.378 10.329 # HGA1
459 3 7 -0.186 23.265 35.996 11.824 # CG321
460 3 3 0.09 23.262 34.963 11.401 # HGA2
461 3 3 0.09 23.098 35.741 12.889 # HGA2
462 3 10 -0.399 21.289 37.737 12.105 # NG2R53
463 3 5 0.371 21.333 37.281 13.508 # CG2R53
464 3 11 -0.49 20.294 36.32 13.763 # OG2D1
465 3 9 -0.011 21.16 38.51 14.386 # CG3C52
466 3 1 0.09 20.112 38.599 14.755 # HRA2
467 3 1 0.09 21.859 38.45 15.251 # HRA2
468 3 9 -0.188 21.502 39.682 13.483 # CG3C52
469 3 1 0.09 22.286 40.333 13.935 # HRA2
470 3 1 0.09 20.586 40.289 13.283 # HRA2
471 3 9 0.067 21.989 39.037 12.197 # CG3C52
472 3 1 0.09 21.74 39.676 11.319 # HRA2
473 3 1 0.09 23.091 38.932 12.252 # HRA2
474 3 6 0.026 24.704 36.601 11.577 # CG311
475 3 2 0.09 24.624 37.689 11.363 # HGA1
476 3 7 -0.186 25.288 35.898 10.289 # CG321
477 3 3 0.09 24.459 35.848 9.554 # HGA2
478 3 3 0.09 25.511 34.834 10.542 # HGA2
479 3 10 -0.399 25.564 36.369 12.803 # NG2R53
480 3 5 0.371 26.872 37.024 12.567 # CG2R53
481 3 11 -0.49 27.9 36.291 13.261 # OG2D1
482 3 9 -0.011 26.827 38.444 13.078 # CG3C52
483 3 1 0.09 26.379 39.106 12.3 # HRA2
484 3 1 0.09 27.837 38.825 13.353 # HRA2
485 3 9 -0.188 25.92 38.351 14.262 # CG3C52
486 3 1 0.09 26.518 38.148 15.182 # HRA2
487 3 1 0.09 25.34 39.294 14.401 # HRA2
488 3 9 0.067 25.015 37.168 13.952 # CG3C52
489 3 1 0.09 23.994 37.559 13.785 # HRA2
490 3 1 0.09 24.958 36.506 14.847 # HRA2
491 3 6 0.026 26.541 36.553 9.586 # CG311
492 3 2 0.09 26.727 37.538 10.07 # HGA1
493 3 7 -0.186 27.825 35.7 9.829 # CG321
494 3 3 0.09 27.789 34.76 9.233 # HGA2
495 3 3 0.09 27.849 35.363 10.885 # HGA2
496 3 10 -0.399 26.41 36.82 8.101 # NG2R53
497 3 5 0.371 25.299 37.774 7.795 # CG2R53
498 3 11 -0.49 24.792 38.503 8.931 # OG2D1
499 3 9 -0.011 24.202 37.071 7.033 # CG3C52
500 3 1 0.09 23.419 36.721 7.735 # HRA2
501 3 1 0.09 23.752 37.737 6.263 # HRA2
502 3 9 -0.188 24.895 35.893 6.411 # CG3C52
503 3 1 0.09 25.31 36.182 5.416 # HRA2
504 3 1 0.09 24.2 35.03 6.287 # HRA2
505 3 9 0.067 26.027 35.572 7.37 # CG3C52
506 3 1 0.09 25.715 34.732 8.031 # HRA2
507 3 1 0.09 26.906 35.208 6.789 # HRA2
508 3 8 -0.273 30.321 35.728 10.201 # CG331
509 3 4 0.09 30.368 34.654 9.907 # HGA3
510 3 4 0.09 30.182 35.765 11.305 # HGA3
511 3 4 0.09 31.297 36.215 9.987 # HGA3
512 3 6 0.026 29.14 36.45 9.503 # CG311
513 3 2 0.09 29.063 37.453 9.99 # HGA1
514 3 10 -0.399 29.235 36.625 8.005 # NG2R53
515 3 5 0.371 29.935 37.889 7.652 # CG2R53
516 3 11 -0.49 31.072 38.149 8.502 # OG2D1
517 3 9 -0.011 30.404 37.717 6.212 # CG3C52
518 3 1 0.09 29.672 38.198 5.524 # HRA2
519 3 1 0.09 31.411 38.169 6.05 # HRA2
520 3 9 -0.188 30.431 36.212 5.98 # CG3C52
521 3 1 0.09 31.433 35.87 5.628 # HRA2
522 3 1 0.09 29.656 35.925 5.231 # HRA2
523 3 9 0.067 30.089 35.614 7.333 # CG3C52
524 3 1 0.09 29.536 34.654 7.214 # HRA2
525 3 1 0.09 31.058 35.429 7.85 # HRA2
526 4 8 -0.273 7.719 49.197 10.584 # CG331
527 4 4 0.09 6.961 49.533 11.327 # HGA3
528 4 4 0.09 7.364 48.248 10.126 # HGA3
529 4 4 0.09 7.765 49.977 9.798 # HGA3
530 4 6 0.026 9.08 49.008 11.277 # CG311
531 4 2 0.09 9.417 50.038 11.548 # HGA1
532 4 7 -0.186 10.155 48.387 10.311 # CG321
533 4 3 0.09 9.672 47.677 9.605 # HGA2
534 4 3 0.09 10.872 47.774 10.899 # HGA2
535 4 10 -0.399 8.853 48.265 12.565 # NG2R53
536 4 5 0.371 10.125 48.338 13.314 # CG2R53
537 4 11 -0.49 10.052 49.369 14.314 # OG2D1
538 4 9 -0.011 10.378 46.995 13.954 # CG3C52
539 4 1 0.09 11.467 46.825 14.117 # HRA2
540 4 1 0.09 9.825 46.917 14.92 # HRA2
541 4 9 -0.188 9.798 46.03 12.959 # CG3C52
542 4 1 0.09 9.436 45.098 13.452 # HRA2
543 4 1 0.09 10.567 45.769 12.195 # HRA2
544 4 9 0.067 8.661 46.804 12.309 # CG3C52
545 4 1 0.09 8.563 46.526 11.235 # HRA2
546 4 1 0.09 7.704 46.5 12.793 # HRA2
547 4 6 0.026 11.004 49.433 9.53 # CG311
548 4 2 0.09 11.612 49.892 10.334 # HGA1
549 4 7 -0.186 11.998 48.709 8.541 # CG321
550 4 3 0.09 11.53 48.622 7.549 # HGA2
551 4 3 0.09 12.119 47.647 8.861 # HGA2
552 4 10 -0.399 10.107 50.522 8.975 # NG2R53
553 4 5 0.371 9.434 50.174 7.69 # CG2R53
554 4 11 -0.49 9.134 48.776 7.512 # OG2D1
555 4 9 -0.011 10.135 50.8 6.51 # CG3C52
556 4 1 0.09 9.381 51.249 5.825 # HRA2
557 4 1 0.09 10.718 50.043 5.944 # HRA2
558 4 9 -0.188 11.024 51.865 7.107 # CG3C52
559 4 1 0.09 12.077 51.747 6.767 # HRA2
560 4 1 0.09 10.672 52.877 6.797 # HRA2
561 4 9 0.067 10.923 51.717 8.622 # CG3C52
562 4 1 0.09 10.4 52.614 9.031 # HRA2
563 4 1 0.09 11.928 51.728 9.096 # HRA2
564 4 6 0.026 13.453 49.289 8.417 # CG311
565 4 2 0.09 13.371 50.362 8.146 # HGA1
566 4 7 -0.186 14.232 49.142 9.783 # CG321
567 4 3 0.09 15.114 48.479 9.641 # HGA2
568 4 3 0.09 13.623 48.583 10.527 # HGA2
569 4 10 -0.399 14.202 48.558 7.325 # NG2R53
570 4 5 0.371 15.524 49.228 7.183 # CG2R53
571 4 11 -0.49 16.555 48.253 7.413 # OG2D1
572 4 9 -0.011 15.676 49.786 5.778 # CG3C52
573 4 1 0.09 15.432 50.874 5.794 # HRA2
574 4 1 0.09 16.701 49.638 5.363 # HRA2
575 4 9 -0.188 14.643 49.044 4.989 # CG3C52
576 4 1 0.09 15.05 48.062 4.649 # HRA2
577 4 1 0.09 14.282 49.633 4.115 # HRA2
578 4 9 0.067 13.555 48.828 6.008 # CG3C52
579 4 1 0.09 12.935 49.75 6.015 # HRA2
580 4 1 0.09 12.921 47.961 5.713 # HRA2
581 4 6 0.026 14.703 50.497 10.396 # CG311
582 4 2 0.09 14.842 51.169 9.532 # HGA1
583 4 7 -0.186 16.093 50.376 11.141 # CG321
584 4 3 0.09 16.089 49.394 11.669 # HGA2
585 4 3 0.09 16.153 51.105 11.967 # HGA2
586 4 10 -0.399 13.581 51.062 11.231 # NG2R53
587 4 5 0.371 13.709 50.571 12.623 # CG2R53
588 4 11 -0.49 12.916 49.386 12.808 # OG2D1
589 4 9 -0.011 13.245 51.672 13.564 # CG3C52
590 4 1 0.09 14.016 51.822 14.354 # HRA2
591 4 1 0.09 12.267 51.427 14.04 # HRA2
592 4 9 -0.188 13.115 52.907 12.698 # CG3C52
593 4 1 0.09 12.037 53.131 12.517 # HRA2
594 4 1 0.09 13.608 53.79 13.167 # HRA2
595 4 9 0.067 13.78 52.524 11.392 # CG3C52
596 4 1 0.09 14.853 52.823 11.435 # HRA2
597 4 1 0.09 13.301 53.069 10.547 # HRA2
598 4 6 0.026 17.384 50.447 10.229 # CG311
599 4 2 0.09 17.11 49.914 9.296 # HGA1
600 4 7 -0.186 18.56 49.619 10.84 # CG321
601 4 3 0.09 18.202 48.601 11.113 # HGA2
602 4 3 0.09 18.871 50.099 11.789 # HGA2
603 4 10 -0.399 17.888 51.816 9.82 # NG2R53
604 4 5 0.371 16.765 52.598 9.279 # CG2R53
605 4 11 -0.49 16.64 52.367 7.864 # OG2D1
606 4 9 -0.011 17.023 54.065 9.558 # CG3C52
607 4 1 0.09 17.456 54.573 8.665 # HRA2