LAMMPS Description

     7970  atoms
     5070  bonds
     8080  angles
     8970  dihedrals
     30  impropers

     25  atom types
     26  bond types
     50  angle types
     68  dihedral types
     2  improper types

  0.0 41.264 xlo xhi
  0.0 41.264 ylo yhi
  0.0 250.000 zlo zhi

Masses

1   1.008    # HRA2
2   1.008    # HGA2
3   1.008    # HGA3
4   12.011   # CG2R53
5   12.011   # CG321
6   12.011   # CG331
7   12.011   # CG3C52
8   14.007   # NG2R53
9   15.9994  # OG2D1
    10 1.008    # HCA2
    11 1.008    # HCP1
	12 12.011   # CC32A
	13 15.9994  # OC311
    14 107.8682  # Ag
	15      1.008  # HRA2
	16      1.008  # HGA1
	17      1.008  # HGA2
	18      1.008  # HGA3
	19     12.011  # CG2R53
	20     12.011  # CG311
	21     12.011  # CG321
	22     12.011  # CG331
	23     12.011  # CG3C52
	24    14.007  # NG2R53
	25   15.9994  # OG2D1

Bond Coeffs

1   13.00902   1.53000   # CG2R53   CG3C52
2   19.94716   1.38000   # CG2R53   NG2R53
3   24.71714   1.23500   # CG2R53   OG2D1
4   9.64836    1.52800   # CG321    CG331
5   13.39929   1.11100   # CG321    HGA2
6   13.87629   1.43000   # CG321    NG2R53
7   13.96301   1.11100   # CG331    HGA3
8   8.45586    1.53000   # CG3C52   CG3C52
9   13.31256   1.10000   # CG3C52   HRA2
10  16.04446   1.45000   # CG3C52   NG2R53
    11   9.64860   1.53000  # CC32A    CC32A
    12  13.39962   1.11100  # CC32A    HCA2 
	13  18.56000   1.42000  # CC32A    OC311
	14  23.63364   0.96000  # HCP1 	OC311    
	15   13.00902   1.530   # CG2R53   CG3C52 
	16   19.94716   1.380   # CG2R53   NG2R53 
	17   24.71714   1.235   # CG2R53   OG2D1  
	18   9.64836    1.538   # CG311    CG321  
	19   9.64836    1.538   # CG311    CG331  
	20   13.39929   1.111   # CG311    HGA1 
	21   13.87629   1.430   # CG311    NG2R53 
	22   13.39929   1.111   # CG321    HGA2 
	23   13.96301   1.111   # CG331    HGA3 
	24  8.45586    1.530   # CG3C52   CG3C52 
	25  13.31256   1.100   # CG3C52   HRA2 
	26  16.04446   1.450   # CG3C52   NG2R53 

Angle Coeffs

1   3.03544  106.5   0.000   0.000  # CG2R53   CG3C52   CG3C52
2   2.51508  111.0   0.000   0.000  # CG2R53   CG3C52   HRA2
3   2.16817  120.0   0.000   0.000  # CG2R53   NG2R53   CG321
4   3.25226  111.0   0.000   0.000  # CG2R53   NG2R53   CG3C52
5   1.50037  110.1   0.977   2.179  # CG321    CG331    HGA3
6   2.16817  116.0   0.000   0.000  # CG321    NG2R53   CG3C52
7   1.50037  110.1   0.977   2.179  # CG331    CG321    HGA2
8   3.03544  113.5   0.000   0.000  # CG331    CG321    NG2R53
9   3.03544  113.5   0.000   0.000  # CG331    CG321    NG2R53
10  5.20361  105.5   0.000   0.000  # CG3C52   CG2R53   NG2R53
11  2.81862  126.7   0.000   0.000  # CG3C52   CG2R53   OG2D1
12  2.51508  109.5   0.484   2.561  # CG3C52   CG3C52   CG3C52
13  1.51772  111.4   0.977   2.179  # CG3C52   CG3C52   HRA2
14  3.90271  104.5   0.000   0.000  # CG3C52   CG3C52   NG2R53
15  1.53940  109.0   0.234   1.802  # HGA2 CG321    HGA2
16  2.08144  108.0   0.000   0.000  # HGA2 CG321    NG2R53
17  1.53940  108.4   0.234   1.802  # HGA3 CG331    HGA3
18  1.66949  106.8   0.234   1.802  # HRA2 CG3C52   HRA2
19  2.55844  111.0   0.000   0.000  # HRA2 CG3C52   NG2R53
20  2.81862  127.8   0.000   0.000  # NG2R53   CG2R53   OG2D1
    21  1.14916  110.10000    0.97700    2.17900  # CC32A    CC32A    HCA2 
    22  3.28269  110.10000    0.00000    0.00000  # CC32A    CC32A    OC311
	23  2.16822  106.00000    0.00000    0.00000  # CC32A    OC311    HCP1 
	24  1.53944  109.00000    0.23417    1.80200  # HCA2 	  CC32A    HCA2     
	25  2.38505  108.89000    0.00000    0.00000  # HCA2     CC32A    OC311    
	26   3.03544	106.5  0.00000	0.000    # CG2R53   CG3C52   CG3C52
	27   2.51508	111.0  0.00000	0.000    # CG2R53   CG3C52   HRA2
	28   2.16817	120.0  0.00000	0.000    # CG2R53   NG2R53   CG311 
	29   3.25226	111.0  0.00000	0.000    # CG2R53   NG2R53   CG3C52
	30   2.53025	113.5  0.48394	2.561    # CG311    CG321    CG311 
	31   1.44964	110.1  0.97698	2.179    # CG311    CG321    HGA2
	32   1.44964	110.1  0.97698	2.179    # CG311    CG331    HGA3
	33   2.16817	116.0  0.00000	0.000    # CG311    NG2R53   CG3C52
	34   2.53025	113.5  0.48394	2.561    # CG321    CG311    CG321 
	35  2.31344	114.0  0.34691	2.561    # CG321    CG311    CG331 
	36  1.49604	110.1  0.97698	2.179    # CG321    CG311    HGA1
	37  3.03544	113.5  0.00000	0.000    # CG321    CG311    NG2R53
	38  1.49604	110.1  0.97698	2.179    # CG331    CG311    HGA1
	39  3.03544	113.5  0.00000	0.000    # CG331    CG311    NG2R53
	40  5.20361	105.5  0.00000	0.000    # CG3C52   CG2R53   NG2R53
	41  2.81862	126.7  0.00000	0.000    # CG3C52   CG2R53   OG2D1 
	42  2.51508	109.5  0.48394	2.561    # CG3C52   CG3C52   CG3C52
	43  1.51772	111.4  0.97698	2.179    # CG3C52   CG3C52   HRA2
	44  3.90271	104.5  0.00000	0.000    # CG3C52   CG3C52   NG2R53
	45  2.08144	108.0  0.00000	0.000    # HGA1 CG311    NG2R53  
	46  1.53940	109.0  0.23416	1.802    # HGA2 CG321    HGA2
	47  1.53940	108.4  0.23416	1.802    # HGA3 CG331    HGA3
	48  1.66949	106.8  0.23416	1.802    # HRA2 CG3C52   HRA2
	49  2.55844	111.0  0.00000	0.000    # HRA2 CG3C52   NG2R53  
	50  2.81862	127.8  0.00000	0.000    # NG2R53   CG2R53   OG2D1 

Dihedral Coeffs

1   0.01474    3    180   0.000   # CG2R53   CG3C52   CG3C52   CG3C52
2   0.00000    3    0     1.000   # CG2R53   CG3C52   CG3C52   HRA2
3   0.03903    1    0     1.000   # CG2R53   NG2R53   CG321    CG331
4   0.00000    1    0     1.000   # CG2R53   NG2R53   CG321    HGA2
5   0.10017    3    180   0.000   # CG2R53   NG2R53   CG3C52   CG3C52
6   0.00000    3    0     1.000   # CG2R53   NG2R53   CG3C52   HRA2
7   0.04857    2    180   1.000   # CG321    NG2R53   CG2R53   CG3C52
8   0.10841    2    180   1.000   # CG321    NG2R53   CG2R53   OG2D1
9   0.02905    3    0     1.000   # CG321    NG2R53   CG3C52   CG3C52
10  0.00000    3    0     1.000   # CG321    NG2R53   CG3C52   HRA2
11  0.00000    1    0     1.000   # CG331    CG321    NG2R53   CG3C52
12  0.01735    2    180   0.000   # CG3C52   CG2R53   NG2R53   CG3C52
13  0.04553    3    180   0.000   # CG3C52   CG3C52   CG2R53   NG2R53
14  0.00347    3    0     1.000   # CG3C52   CG3C52   CG2R53   OG2D1
15  0.00824    3    0     1.000   # CG3C52   CG3C52   CG3C52   HRA2
16  0.09236    3    0     0.000   # CG3C52   CG3C52   CG3C52   NG2R53
17  0.11231    2    180   1.000   # CG3C52   NG2R53   CG2R53   OG2D1
18  0.00000    1    0     1.000   # CG3C52   NG2R53   CG321    HGA2
19  0.00694    3    0     1.000   # HGA2 CG321    CG331    HGA3
20  0.00867    3    0     1.000   # HGA3 CG331    CG321    NG2R53
21  0.00000    3    180   1.000   # HRA2 CG3C52   CG2R53   NG2R53
22  0.00000    3    0     1.000   # HRA2 CG3C52   CG2R53   OG2D1
23  0.00824    3    0     1.000   # HRA2 CG3C52   CG3C52   HRA2
24  0.00000    3    180   1.000   # HRA2 CG3C52   CG3C52   NG2R53
    25  0.01735          1        180      1.000  # CC32A    CC32A    OC311    HCP1 
    26  0.00043          2          0      0.000  # CC32A    CC32A    OC311    HCP1 
	27  0.01127          3          0      0.000  # CC32A    CC32A    OC311    HCP1 
	28  0.00824          3          0      1.000  # HCA2     CC32A    CC32A    HCA2         
	29  0.00607          3          0      1.000  # HCA2     CC32A    CC32A    OC311        
	30  0.00781          3          0      1.000  # HCA2     CC32A    OC311    HCP1     
    31  0.01431          1          0      1.000  # OC311    CC32A    CC32A    OC311
	32  0.09410          2          0      0.000  # OC311    CC32A    CC32A    OC311
	33  0.01951          3          0      0.000  # OC311    CC32A    CC32A    OC311
	34   0.01474	3	180	 0   # CG2R53   CG3C52   CG3C52   CG3C52  
	35   0.00000	3	0    1   # CG2R53   CG3C52   CG3C52   HRA2  
	36   0.03903	1	0    1   # CG2R53   NG2R53   CG311    CG321   
	37   0.03903	1	0    1   # CG2R53   NG2R53   CG311    CG331   
	38   0.00000	1	0    1   # CG2R53   NG2R53   CG311    HGA1  
	39   0.10017	3	180	 0   # CG2R53   NG2R53   CG3C52   CG3C52  
	40   0.00000	3	0    1   # CG2R53   NG2R53   CG3C52   HRA2  
	41   0.00867	3	0    1   # CG311    CG321    CG311    CG321   
	42   0.00867	3	0    1   # CG311    CG321    CG311    CG331   
	43  0.00846	3	0    1   # CG311    CG321    CG311    HGA1  
	44  0.00867	3	0    1   # CG311    CG321    CG311    NG2R53  
	45  0.04857	2	180	 1   # CG311    NG2R53   CG2R53   CG3C52  
	46  0.10841	2	180	 1   # CG311    NG2R53   CG2R53   OG2D1   
	47  0.02905	3	0    1   # CG311    NG2R53   CG3C52   CG3C52  
	48  0.00000	3	0    1   # CG311    NG2R53   CG3C52   HRA2  
	49  0.00867	3	0    1   # CG321    CG311    CG321    HGA2  
	50  0.00867	3	0    1   # CG321    CG311    CG331    HGA3  
	51  0.00000	1	0    1   # CG321    CG311    NG2R53   CG3C52  
	52  0.00867	3	0    1   # CG331    CG311    CG321    HGA2  
	53  0.00000	1	0    1   # CG331    CG311    NG2R53   CG3C52  
	54  0.01735	2	180	 0   # CG3C52   CG2R53   NG2R53   CG3C52  
	55  0.04553	3	180	 0   # CG3C52   CG3C52   CG2R53   NG2R53  
	56  0.00347	3	0    1   # CG3C52   CG3C52   CG2R53   OG2D1   
	57  0.00824	3	0    1   # CG3C52   CG3C52   CG3C52   HRA2  
	58  0.09236	3	0    0   # CG3C52   CG3C52   CG3C52   NG2R53  
	59  0.11231	2	180	 1   # CG3C52   NG2R53   CG2R53   OG2D1   
	60  0.00000	1	0    1   # CG3C52   NG2R53   CG311    HGA1  
	61  0.00846	3	0    1   # HGA1 CG311    CG321    HGA2  
	62  0.00846	3	0    1   # HGA1 CG311    CG331    HGA3  
	63  0.00867	3	0    1   # HGA2 CG321    CG311    NG2R53    
	64  0.00867	3	0    1   # HGA3 CG331    CG311    NG2R53    
	65  0.00000	3	180	 1   # HRA2 CG3C52   CG2R53   NG2R53    
	66  0.00000	3	0  	 1   # HRA2 CG3C52   CG2R53   OG2D1     
	67  0.00824	3	0  	 1   # HRA2 CG3C52   CG3C52   HRA2  
	68  0.00000	3	180	 1   # HRA2 CG3C52   CG3C52   NG2R53    

Improper Coeffs

1  3.90271  0.00000  # CG2R53   CG3C52   NG2R53   OG2D1
	2   3.90271	0.00000	 # CG2R53   CG3C52   NG2R53   OG2D1

Atoms # full

1 1 14 0.00 0.0 0.0 0.0 # Ag
2 2 14 0.00 4.1264 0.0 0.0 # Ag
3 3 14 0.00 8.2528 0.0 0.0 # Ag
4 4 14 0.00 12.3792 0.0 0.0 # Ag
5 5 14 0.00 16.5056 0.0 0.0 # Ag
6 6 14 0.00 20.632 0.0 0.0 # Ag
7 7 14 0.00 24.7584 0.0 0.0 # Ag
8 8 14 0.00 28.8848 0.0 0.0 # Ag
9 9 14 0.00 33.0112 0.0 0.0 # Ag
10 10 14 0.00 37.1376 0.0 0.0 # Ag
11 11 14 0.00 0.0 4.1264 0.0 # Ag
12 12 14 0.00 4.1264 4.1264 0.0 # Ag
13 13 14 0.00 8.2528 4.1264 0.0 # Ag
14 14 14 0.00 12.3792 4.1264 0.0 # Ag
15 15 14 0.00 16.5056 4.1264 0.0 # Ag
16 16 14 0.00 20.632 4.1264 0.0 # Ag
17 17 14 0.00 24.7584 4.1264 0.0 # Ag
18 18 14 0.00 28.8848 4.1264 0.0 # Ag
19 19 14 0.00 33.0112 4.1264 0.0 # Ag
20 20 14 0.00 37.1376 4.1264 0.0 # Ag
21 21 14 0.00 0.0 8.2528 0.0 # Ag
22 22 14 0.00 4.1264 8.2528 0.0 # Ag
23 23 14 0.00 8.2528 8.2528 0.0 # Ag
24 24 14 0.00 12.3792 8.2528 0.0 # Ag
25 25 14 0.00 16.5056 8.2528 0.0 # Ag
26 26 14 0.00 20.632 8.2528 0.0 # Ag
27 27 14 0.00 24.7584 8.2528 0.0 # Ag
28 28 14 0.00 28.8848 8.2528 0.0 # Ag
29 29 14 0.00 33.0112 8.2528 0.0 # Ag
30 30 14 0.00 37.1376 8.2528 0.0 # Ag
31 31 14 0.00 0.0 12.3792 0.0 # Ag
32 32 14 0.00 4.1264 12.3792 0.0 # Ag
33 33 14 0.00 8.2528 12.3792 0.0 # Ag
34 34 14 0.00 12.3792 12.3792 0.0 # Ag
35 35 14 0.00 16.5056 12.3792 0.0 # Ag
36 36 14 0.00 20.632 12.3792 0.0 # Ag
37 37 14 0.00 24.7584 12.3792 0.0 # Ag
38 38 14 0.00 28.8848 12.3792 0.0 # Ag
39 39 14 0.00 33.0112 12.3792 0.0 # Ag
40 40 14 0.00 37.1376 12.3792 0.0 # Ag
41 41 14 0.00 0.0 16.5056 0.0 # Ag
42 42 14 0.00 4.1264 16.5056 0.0 # Ag
43 43 14 0.00 8.2528 16.5056 0.0 # Ag
44 44 14 0.00 12.3792 16.5056 0.0 # Ag
45 45 14 0.00 16.5056 16.5056 0.0 # Ag
46 46 14 0.00 20.632 16.5056 0.0 # Ag
47 47 14 0.00 24.7584 16.5056 0.0 # Ag
48 48 14 0.00 28.8848 16.5056 0.0 # Ag
49 49 14 0.00 33.0112 16.5056 0.0 # Ag
50 50 14 0.00 37.1376 16.5056 0.0 # Ag
51 51 14 0.00 0.0 20.632 0.0 # Ag
52 52 14 0.00 4.1264 20.632 0.0 # Ag
53 53 14 0.00 8.2528 20.632 0.0 # Ag
54 54 14 0.00 12.3792 20.632 0.0 # Ag
55 55 14 0.00 16.5056 20.632 0.0 # Ag
56 56 14 0.00 20.632 20.632 0.0 # Ag
57 57 14 0.00 24.7584 20.632 0.0 # Ag
58 58 14 0.00 28.8848 20.632 0.0 # Ag
59 59 14 0.00 33.0112 20.632 0.0 # Ag
60 60 14 0.00 37.1376 20.632 0.0 # Ag
61 61 14 0.00 0.0 24.7584 0.0 # Ag
62 62 14 0.00 4.1264 24.7584 0.0 # Ag
63 63 14 0.00 8.2528 24.7584 0.0 # Ag
64 64 14 0.00 12.3792 24.7584 0.0 # Ag
65 65 14 0.00 16.5056 24.7584 0.0 # Ag
66 66 14 0.00 20.632 24.7584 0.0 # Ag
67 67 14 0.00 24.7584 24.7584 0.0 # Ag
68 68 14 0.00 28.8848 24.7584 0.0 # Ag
69 69 14 0.00 33.0112 24.7584 0.0 # Ag
70 70 14 0.00 37.1376 24.7584 0.0 # Ag
71 71 14 0.00 0.0 28.8848 0.0 # Ag
72 72 14 0.00 4.1264 28.8848 0.0 # Ag
73 73 14 0.00 8.2528 28.8848 0.0 # Ag
74 74 14 0.00 12.3792 28.8848 0.0 # Ag
75 75 14 0.00 16.5056 28.8848 0.0 # Ag
76 76 14 0.00 20.632 28.8848 0.0 # Ag
77 77 14 0.00 24.7584 28.8848 0.0 # Ag
78 78 14 0.00 28.8848 28.8848 0.0 # Ag
79 79 14 0.00 33.0112 28.8848 0.0 # Ag
80 80 14 0.00 37.1376 28.8848 0.0 # Ag
81 81 14 0.00 0.0 33.0112 0.0 # Ag
82 82 14 0.00 4.1264 33.0112 0.0 # Ag
83 83 14 0.00 8.2528 33.0112 0.0 # Ag
84 84 14 0.00 12.3792 33.0112 0.0 # Ag
85 85 14 0.00 16.5056 33.0112 0.0 # Ag
86 86 14 0.00 20.632 33.0112 0.0 # Ag
87 87 14 0.00 24.7584 33.0112 0.0 # Ag
88 88 14 0.00 28.8848 33.0112 0.0 # Ag
89 89 14 0.00 33.0112 33.0112 0.0 # Ag
90 90 14 0.00 37.1376 33.0112 0.0 # Ag
91 91 14 0.00 0.0 37.1376 0.0 # Ag
92 92 14 0.00 4.1264 37.1376 0.0 # Ag
93 93 14 0.00 8.2528 37.1376 0.0 # Ag
94 94 14 0.00 12.3792 37.1376 0.0 # Ag
95 95 14 0.00 16.5056 37.1376 0.0 # Ag
96 96 14 0.00 20.632 37.1376 0.0 # Ag
97 97 14 0.00 24.7584 37.1376 0.0 # Ag
98 98 14 0.00 28.8848 37.1376 0.0 # Ag
99 99 14 0.00 33.0112 37.1376 0.0 # Ag
100 100 14 0.00 37.1376 37.1376 0.0 # Ag
101 101 14 0.00 0.0 0.0 4.1264 # Ag
102 102 14 0.00 4.1264 0.0 4.1264 # Ag
103 103 14 0.00 8.2528 0.0 4.1264 # Ag
104 104 14 0.00 12.3792 0.0 4.1264 # Ag
105 105 14 0.00 16.5056 0.0 4.1264 # Ag
106 106 14 0.00 20.632 0.0 4.1264 # Ag
107 107 14 0.00 24.7584 0.0 4.1264 # Ag
108 108 14 0.00 28.8848 0.0 4.1264 # Ag
109 109 14 0.00 33.0112 0.0 4.1264 # Ag
110 110 14 0.00 37.1376 0.0 4.1264 # Ag
111 111 14 0.00 0.0 4.1264 4.1264 # Ag
112 112 14 0.00 4.1264 4.1264 4.1264 # Ag
113 113 14 0.00 8.2528 4.1264 4.1264 # Ag
114 114 14 0.00 12.3792 4.1264 4.1264 # Ag
115 115 14 0.00 16.5056 4.1264 4.1264 # Ag
116 116 14 0.00 20.632 4.1264 4.1264 # Ag
117 117 14 0.00 24.7584 4.1264 4.1264 # Ag
118 118 14 0.00 28.8848 4.1264 4.1264 # Ag
119 119 14 0.00 33.0112 4.1264 4.1264 # Ag
120 120 14 0.00 37.1376 4.1264 4.1264 # Ag
121 121 14 0.00 0.0 8.2528 4.1264 # Ag
122 122 14 0.00 4.1264 8.2528 4.1264 # Ag
123 123 14 0.00 8.2528 8.2528 4.1264 # Ag
124 124 14 0.00 12.3792 8.2528 4.1264 # Ag
125 125 14 0.00 16.5056 8.2528 4.1264 # Ag
126 126 14 0.00 20.632 8.2528 4.1264 # Ag
127 127 14 0.00 24.7584 8.2528 4.1264 # Ag
128 128 14 0.00 28.8848 8.2528 4.1264 # Ag
129 129 14 0.00 33.0112 8.2528 4.1264 # Ag
130 130 14 0.00 37.1376 8.2528 4.1264 # Ag
131 131 14 0.00 0.0 12.3792 4.1264 # Ag
132 132 14 0.00 4.1264 12.3792 4.1264 # Ag
133 133 14 0.00 8.2528 12.3792 4.1264 # Ag
134 134 14 0.00 12.3792 12.3792 4.1264 # Ag
135 135 14 0.00 16.5056 12.3792 4.1264 # Ag
136 136 14 0.00 20.632 12.3792 4.1264 # Ag
137 137 14 0.00 24.7584 12.3792 4.1264 # Ag
138 138 14 0.00 28.8848 12.3792 4.1264 # Ag
139 139 14 0.00 33.0112 12.3792 4.1264 # Ag
140 140 14 0.00 37.1376 12.3792 4.1264 # Ag
141 141 14 0.00 0.0 16.5056 4.1264 # Ag
142 142 14 0.00 4.1264 16.5056 4.1264 # Ag
143 143 14 0.00 8.2528 16.5056 4.1264 # Ag
144 144 14 0.00 12.3792 16.5056 4.1264 # Ag
145 145 14 0.00 16.5056 16.5056 4.1264 # Ag
146 146 14 0.00 20.632 16.5056 4.1264 # Ag
147 147 14 0.00 24.7584 16.5056 4.1264 # Ag
148 148 14 0.00 28.8848 16.5056 4.1264 # Ag
149 149 14 0.00 33.0112 16.5056 4.1264 # Ag
150 150 14 0.00 37.1376 16.5056 4.1264 # Ag
151 151 14 0.00 0.0 20.632 4.1264 # Ag
152 152 14 0.00 4.1264 20.632 4.1264 # Ag
153 153 14 0.00 8.2528 20.632 4.1264 # Ag
154 154 14 0.00 12.3792 20.632 4.1264 # Ag
155 155 14 0.00 16.5056 20.632 4.1264 # Ag
156 156 14 0.00 20.632 20.632 4.1264 # Ag
157 157 14 0.00 24.7584 20.632 4.1264 # Ag
158 158 14 0.00 28.8848 20.632 4.1264 # Ag
159 159 14 0.00 33.0112 20.632 4.1264 # Ag
160 160 14 0.00 37.1376 20.632 4.1264 # Ag
161 161 14 0.00 0.0 24.7584 4.1264 # Ag
162 162 14 0.00 4.1264 24.7584 4.1264 # Ag
163 163 14 0.00 8.2528 24.7584 4.1264 # Ag
164 164 14 0.00 12.3792 24.7584 4.1264 # Ag
165 165 14 0.00 16.5056 24.7584 4.1264 # Ag
166 166 14 0.00 20.632 24.7584 4.1264 # Ag
167 167 14 0.00 24.7584 24.7584 4.1264 # Ag
168 168 14 0.00 28.8848 24.7584 4.1264 # Ag
169 169 14 0.00 33.0112 24.7584 4.1264 # Ag
170 170 14 0.00 37.1376 24.7584 4.1264 # Ag
171 171 14 0.00 0.0 28.8848 4.1264 # Ag
172 172 14 0.00 4.1264 28.8848 4.1264 # Ag
173 173 14 0.00 8.2528 28.8848 4.1264 # Ag
174 174 14 0.00 12.3792 28.8848 4.1264 # Ag
175 175 14 0.00 16.5056 28.8848 4.1264 # Ag
176 176 14 0.00 20.632 28.8848 4.1264 # Ag
177 177 14 0.00 24.7584 28.8848 4.1264 # Ag
178 178 14 0.00 28.8848 28.8848 4.1264 # Ag
179 179 14 0.00 33.0112 28.8848 4.1264 # Ag
180 180 14 0.00 37.1376 28.8848 4.1264 # Ag
181 181 14 0.00 0.0 33.0112 4.1264 # Ag
182 182 14 0.00 4.1264 33.0112 4.1264 # Ag
183 183 14 0.00 8.2528 33.0112 4.1264 # Ag
184 184 14 0.00 12.3792 33.0112 4.1264 # Ag
185 185 14 0.00 16.5056 33.0112 4.1264 # Ag
186 186 14 0.00 20.632 33.0112 4.1264 # Ag
187 187 14 0.00 24.7584 33.0112 4.1264 # Ag
188 188 14 0.00 28.8848 33.0112 4.1264 # Ag
189 189 14 0.00 33.0112 33.0112 4.1264 # Ag
190 190 14 0.00 37.1376 33.0112 4.1264 # Ag
191 191 14 0.00 0.0 37.1376 4.1264 # Ag
192 192 14 0.00 4.1264 37.1376 4.1264 # Ag
193 193 14 0.00 8.2528 37.1376 4.1264 # Ag
194 194 14 0.00 12.3792 37.1376 4.1264 # Ag
195 195 14 0.00 16.5056 37.1376 4.1264 # Ag
196 196 14 0.00 20.632 37.1376 4.1264 # Ag
197 197 14 0.00 24.7584 37.1376 4.1264 # Ag
198 198 14 0.00 28.8848 37.1376 4.1264 # Ag
199 199 14 0.00 33.0112 37.1376 4.1264 # Ag
200 200 14 0.00 37.1376 37.1376 4.1264 # Ag
201 201 14 0.00 0.0 0.0 8.2528 # Ag
202 202 14 0.00 4.1264 0.0 8.2528 # Ag
203 203 14 0.00 8.2528 0.0 8.2528 # Ag
204 204 14 0.00 12.3792 0.0 8.2528 # Ag
205 205 14 0.00 16.5056 0.0 8.2528 # Ag
206 206 14 0.00 20.632 0.0 8.2528 # Ag
207 207 14 0.00 24.7584 0.0 8.2528 # Ag
208 208 14 0.00 28.8848 0.0 8.2528 # Ag
209 209 14 0.00 33.0112 0.0 8.2528 # Ag
210 210 14 0.00 37.1376 0.0 8.2528 # Ag
211 211 14 0.00 0.0 4.1264 8.2528 # Ag
212 212 14 0.00 4.1264 4.1264 8.2528 # Ag
213 213 14 0.00 8.2528 4.1264 8.2528 # Ag
214 214 14 0.00 12.3792 4.1264 8.2528 # Ag
215 215 14 0.00 16.5056 4.1264 8.2528 # Ag
216 216 14 0.00 20.632 4.1264 8.2528 # Ag
217 217 14 0.00 24.7584 4.1264 8.2528 # Ag
218 218 14 0.00 28.8848 4.1264 8.2528 # Ag
219 219 14 0.00 33.0112 4.1264 8.2528 # Ag
220 220 14 0.00 37.1376 4.1264 8.2528 # Ag
221 221 14 0.00 0.0 8.2528 8.2528 # Ag
222 222 14 0.00 4.1264 8.2528 8.2528 # Ag
223 223 14 0.00 8.2528 8.2528 8.2528 # Ag
224 224 14 0.00 12.3792 8.2528 8.2528 # Ag
225 225 14 0.00 16.5056 8.2528 8.2528 # Ag
226 226 14 0.00 20.632 8.2528 8.2528 # Ag
227 227 14 0.00 24.7584 8.2528 8.2528 # Ag
228 228 14 0.00 28.8848 8.2528 8.2528 # Ag
229 229 14 0.00 33.0112 8.2528 8.2528 # Ag
230 230 14 0.00 37.1376 8.2528 8.2528 # Ag
231 231 14 0.00 0.0 12.3792 8.2528 # Ag
232 232 14 0.00 4.1264 12.3792 8.2528 # Ag
233 233 14 0.00 8.2528 12.3792 8.2528 # Ag
234 234 14 0.00 12.3792 12.3792 8.2528 # Ag
235 235 14 0.00 16.5056 12.3792 8.2528 # Ag
236 236 14 0.00 20.632 12.3792 8.2528 # Ag
237 237 14 0.00 24.7584 12.3792 8.2528 # Ag
238 238 14 0.00 28.8848 12.3792 8.2528 # Ag
239 239 14 0.00 33.0112 12.3792 8.2528 # Ag
240 240 14 0.00 37.1376 12.3792 8.2528 # Ag
241 241 14 0.00 0.0 16.5056 8.2528 # Ag
242 242 14 0.00 4.1264 16.5056 8.2528 # Ag
243 243 14 0.00 8.2528 16.5056 8.2528 # Ag
244 244 14 0.00 12.3792 16.5056 8.2528 # Ag
245 245 14 0.00 16.5056 16.5056 8.2528 # Ag
246 246 14 0.00 20.632 16.5056 8.2528 # Ag
247 247 14 0.00 24.7584 16.5056 8.2528 # Ag
248 248 14 0.00 28.8848 16.5056 8.2528 # Ag
249 249 14 0.00 33.0112 16.5056 8.2528 # Ag
250 250 14 0.00 37.1376 16.5056 8.2528 # Ag
251 251 14 0.00 0.0 20.632 8.2528 # Ag
252 252 14 0.00 4.1264 20.632 8.2528 # Ag
253 253 14 0.00 8.2528 20.632 8.2528 # Ag
254 254 14 0.00 12.3792 20.632 8.2528 # Ag
255 255 14 0.00 16.5056 20.632 8.2528 # Ag
256 256 14 0.00 20.632 20.632 8.2528 # Ag
257 257 14 0.00 24.7584 20.632 8.2528 # Ag
258 258 14 0.00 28.8848 20.632 8.2528 # Ag
259 259 14 0.00 33.0112 20.632 8.2528 # Ag
260 260 14 0.00 37.1376 20.632 8.2528 # Ag
261 261 14 0.00 0.0 24.7584 8.2528 # Ag
262 262 14 0.00 4.1264 24.7584 8.2528 # Ag
263 263 14 0.00 8.2528 24.7584 8.2528 # Ag
264 264 14 0.00 12.3792 24.7584 8.2528 # Ag
265 265 14 0.00 16.5056 24.7584 8.2528 # Ag
266 266 14 0.00 20.632 24.7584 8.2528 # Ag
267 267 14 0.00 24.7584 24.7584 8.2528 # Ag
268 268 14 0.00 28.8848 24.7584 8.2528 # Ag
269 269 14 0.00 33.0112 24.7584 8.2528 # Ag
270 270 14 0.00 37.1376 24.7584 8.2528 # Ag
271 271 14 0.00 0.0 28.8848 8.2528 # Ag
272 272 14 0.00 4.1264 28.8848 8.2528 # Ag
273 273 14 0.00 8.2528 28.8848 8.2528 # Ag
274 274 14 0.00 12.3792 28.8848 8.2528 # Ag
275 275 14 0.00 16.5056 28.8848 8.2528 # Ag
276 276 14 0.00 20.632 28.8848 8.2528 # Ag
277 277 14 0.00 24.7584 28.8848 8.2528 # Ag
278 278 14 0.00 28.8848 28.8848 8.2528 # Ag
279 279 14 0.00 33.0112 28.8848 8.2528 # Ag
280 280 14 0.00 37.1376 28.8848 8.2528 # Ag
281 281 14 0.00 0.0 33.0112 8.2528 # Ag
282 282 14 0.00 4.1264 33.0112 8.2528 # Ag
283 283 14 0.00 8.2528 33.0112 8.2528 # Ag
284 284 14 0.00 12.3792 33.0112 8.2528 # Ag
285 285 14 0.00 16.5056 33.0112 8.2528 # Ag
286 286 14 0.00 20.632 33.0112 8.2528 # Ag
287 287 14 0.00 24.7584 33.0112 8.2528 # Ag
288 288 14 0.00 28.8848 33.0112 8.2528 # Ag
289 289 14 0.00 33.0112 33.0112 8.2528 # Ag
290 290 14 0.00 37.1376 33.0112 8.2528 # Ag
291 291 14 0.00 0.0 37.1376 8.2528 # Ag
292 292 14 0.00 4.1264 37.1376 8.2528 # Ag
293 293 14 0.00 8.2528 37.1376 8.2528 # Ag
294 294 14 0.00 12.3792 37.1376 8.2528 # Ag
295 295 14 0.00 16.5056 37.1376 8.2528 # Ag
296 296 14 0.00 20.632 37.1376 8.2528 # Ag
297 297 14 0.00 24.7584 37.1376 8.2528 # Ag
298 298 14 0.00 28.8848 37.1376 8.2528 # Ag
299 299 14 0.00 33.0112 37.1376 8.2528 # Ag
300 300 14 0.00 37.1376 37.1376 8.2528 # Ag
301 301 14 0.00 0.0 0.0 12.3792 # Ag
302 302 14 0.00 4.1264 0.0 12.3792 # Ag
303 303 14 0.00 8.2528 0.0 12.3792 # Ag
304 304 14 0.00 12.3792 0.0 12.3792 # Ag
305 305 14 0.00 16.5056 0.0 12.3792 # Ag
306 306 14 0.00 20.632 0.0 12.3792 # Ag
307 307 14 0.00 24.7584 0.0 12.3792 # Ag
308 308 14 0.00 28.8848 0.0 12.3792 # Ag
309 309 14 0.00 33.0112 0.0 12.3792 # Ag
310 310 14 0.00 37.1376 0.0 12.3792 # Ag
311 311 14 0.00 0.0 4.1264 12.3792 # Ag
312 312 14 0.00 4.1264 4.1264 12.3792 # Ag
313 313 14 0.00 8.2528 4.1264 12.3792 # Ag
314 314 14 0.00 12.3792 4.1264 12.3792 # Ag
315 315 14 0.00 16.5056 4.1264 12.3792 # Ag
316 316 14 0.00 20.632 4.1264 12.3792 # Ag
317 317 14 0.00 24.7584 4.1264 12.3792 # Ag
318 318 14 0.00 28.8848 4.1264 12.3792 # Ag
319 319 14 0.00 33.0112 4.1264 12.3792 # Ag
320 320 14 0.00 37.1376 4.1264 12.3792 # Ag
321 321 14 0.00 0.0 8.2528 12.3792 # Ag
322 322 14 0.00 4.1264 8.2528 12.3792 # Ag
323 323 14 0.00 8.2528 8.2528 12.3792 # Ag
324 324 14 0.00 12.3792 8.2528 12.3792 # Ag
325 325 14 0.00 16.5056 8.2528 12.3792 # Ag
326 326 14 0.00 20.632 8.2528 12.3792 # Ag
327 327 14 0.00 24.7584 8.2528 12.3792 # Ag
328 328 14 0.00 28.8848 8.2528 12.3792 # Ag
329 329 14 0.00 33.0112 8.2528 12.3792 # Ag
330 330 14 0.00 37.1376 8.2528 12.3792 # Ag
331 331 14 0.00 0.0 12.3792 12.3792 # Ag
332 332 14 0.00 4.1264 12.3792 12.3792 # Ag
333 333 14 0.00 8.2528 12.3792 12.3792 # Ag
334 334 14 0.00 12.3792 12.3792 12.3792 # Ag
335 335 14 0.00 16.5056 12.3792 12.3792 # Ag
336 336 14 0.00 20.632 12.3792 12.3792 # Ag
337 337 14 0.00 24.7584 12.3792 12.3792 # Ag
338 338 14 0.00 28.8848 12.3792 12.3792 # Ag
339 339 14 0.00 33.0112 12.3792 12.3792 # Ag
340 340 14 0.00 37.1376 12.3792 12.3792 # Ag
341 341 14 0.00 0.0 16.5056 12.3792 # Ag
342 342 14 0.00 4.1264 16.5056 12.3792 # Ag
343 343 14 0.00 8.2528 16.5056 12.3792 # Ag
344 344 14 0.00 12.3792 16.5056 12.3792 # Ag
345 345 14 0.00 16.5056 16.5056 12.3792 # Ag
346 346 14 0.00 20.632 16.5056 12.3792 # Ag
347 347 14 0.00 24.7584 16.5056 12.3792 # Ag
348 348 14 0.00 28.8848 16.5056 12.3792 # Ag
349 349 14 0.00 33.0112 16.5056 12.3792 # Ag
350 350 14 0.00 37.1376 16.5056 12.3792 # Ag
351 351 14 0.00 0.0 20.632 12.3792 # Ag
352 352 14 0.00 4.1264 20.632 12.3792 # Ag
353 353 14 0.00 8.2528 20.632 12.3792 # Ag
354 354 14 0.00 12.3792 20.632 12.3792 # Ag
355 355 14 0.00 16.5056 20.632 12.3792 # Ag
356 356 14 0.00 20.632 20.632 12.3792 # Ag
357 357 14 0.00 24.7584 20.632 12.3792 # Ag
358 358 14 0.00 28.8848 20.632 12.3792 # Ag
359 359 14 0.00 33.0112 20.632 12.3792 # Ag
360 360 14 0.00 37.1376 20.632 12.3792 # Ag
361 361 14 0.00 0.0 24.7584 12.3792 # Ag
362 362 14 0.00 4.1264 24.7584 12.3792 # Ag
363 363 14 0.00 8.2528 24.7584 12.3792 # Ag
364 364 14 0.00 12.3792 24.7584 12.3792 # Ag
365 365 14 0.00 16.5056 24.7584 12.3792 # Ag
366 366 14 0.00 20.632 24.7584 12.3792 # Ag
367 367 14 0.00 24.7584 24.7584 12.3792 # Ag
368 368 14 0.00 28.8848 24.7584 12.3792 # Ag
369 369 14 0.00 33.0112 24.7584 12.3792 # Ag
370 370 14 0.00 37.1376 24.7584 12.3792 # Ag
371 371 14 0.00 0.0 28.8848 12.3792 # Ag
372 372 14 0.00 4.1264 28.8848 12.3792 # Ag
373 373 14 0.00 8.2528 28.8848 12.3792 # Ag
374 374 14 0.00 12.3792 28.8848 12.3792 # Ag
375 375 14 0.00 16.5056 28.8848 12.3792 # Ag
376 376 14 0.00 20.632 28.8848 12.3792 # Ag
377 377 14 0.00 24.7584 28.8848 12.3792 # Ag
378 378 14 0.00 28.8848 28.8848 12.3792 # Ag
379 379 14 0.00 33.0112 28.8848 12.3792 # Ag
380 380 14 0.00 37.1376 28.8848 12.3792 # Ag
381 381 14 0.00 0.0 33.0112 12.3792 # Ag
382 382 14 0.00 4.1264 33.0112 12.3792 # Ag
383 383 14 0.00 8.2528 33.0112 12.3792 # Ag
384 384 14 0.00 12.3792 33.0112 12.3792 # Ag
385 385 14 0.00 16.5056 33.0112 12.3792 # Ag
386 386 14 0.00 20.632 33.0112 12.3792 # Ag
387 387 14 0.00 24.7584 33.0112 12.3792 # Ag
388 388 14 0.00 28.8848 33.0112 12.3792 # Ag
389 389 14 0.00 33.0112 33.0112 12.3792 # Ag
390 390 14 0.00 37.1376 33.0112 12.3792 # Ag
391 391 14 0.00 0.0 37.1376 12.3792 # Ag
392 392 14 0.00 4.1264 37.1376 12.3792 # Ag
393 393 14 0.00 8.2528 37.1376 12.3792 # Ag
394 394 14 0.00 12.3792 37.1376 12.3792 # Ag
395 395 14 0.00 16.5056 37.1376 12.3792 # Ag
396 396 14 0.00 20.632 37.1376 12.3792 # Ag
397 397 14 0.00 24.7584 37.1376 12.3792 # Ag
398 398 14 0.00 28.8848 37.1376 12.3792 # Ag
399 399 14 0.00 33.0112 37.1376 12.3792 # Ag
400 400 14 0.00 37.1376 37.1376 12.3792 # Ag
401 401 14 0.00 0.0 0.0 16.5056 # Ag
402 402 14 0.00 4.1264 0.0 16.5056 # Ag
403 403 14 0.00 8.2528 0.0 16.5056 # Ag
404 404 14 0.00 12.3792 0.0 16.5056 # Ag
405 405 14 0.00 16.5056 0.0 16.5056 # Ag
406 406 14 0.00 20.632 0.0 16.5056 # Ag
407 407 14 0.00 24.7584 0.0 16.5056 # Ag
408 408 14 0.00 28.8848 0.0 16.5056 # Ag
409 409 14 0.00 33.0112 0.0 16.5056 # Ag
410 410 14 0.00 37.1376 0.0 16.5056 # Ag
411 411 14 0.00 0.0 4.1264 16.5056 # Ag
412 412 14 0.00 4.1264 4.1264 16.5056 # Ag
413 413 14 0.00 8.2528 4.1264 16.5056 # Ag
414 414 14 0.00 12.3792 4.1264 16.5056 # Ag
415 415 14 0.00 16.5056 4.1264 16.5056 # Ag
416 416 14 0.00 20.632 4.1264 16.5056 # Ag
417 417 14 0.00 24.7584 4.1264 16.5056 # Ag
418 418 14 0.00 28.8848 4.1264 16.5056 # Ag
419 419 14 0.00 33.0112 4.1264 16.5056 # Ag
420 420 14 0.00 37.1376 4.1264 16.5056 # Ag
421 421 14 0.00 0.0 8.2528 16.5056 # Ag
422 422 14 0.00 4.1264 8.2528 16.5056 # Ag
423 423 14 0.00 8.2528 8.2528 16.5056 # Ag
424 424 14 0.00 12.3792 8.2528 16.5056 # Ag
425 425 14 0.00 16.5056 8.2528 16.5056 # Ag
426 426 14 0.00 20.632 8.2528 16.5056 # Ag
427 427 14 0.00 24.7584 8.2528 16.5056 # Ag
428 428 14 0.00 28.8848 8.2528 16.5056 # Ag
429 429 14 0.00 33.0112 8.2528 16.5056 # Ag
430 430 14 0.00 37.1376 8.2528 16.5056 # Ag
431 431 14 0.00 0.0 12.3792 16.5056 # Ag
432 432 14 0.00 4.1264 12.3792 16.5056 # Ag
433 433 14 0.00 8.2528 12.3792 16.5056 # Ag
434 434 14 0.00 12.3792 12.3792 16.5056 # Ag
435 435 14 0.00 16.5056 12.3792 16.5056 # Ag
436 436 14 0.00 20.632 12.3792 16.5056 # Ag
437 437 14 0.00 24.7584 12.3792 16.5056 # Ag
438 438 14 0.00 28.8848 12.3792 16.5056 # Ag
439 439 14 0.00 33.0112 12.3792 16.5056 # Ag
440 440 14 0.00 37.1376 12.3792 16.5056 # Ag
441 441 14 0.00 0.0 16.5056 16.5056 # Ag
442 442 14 0.00 4.1264 16.5056 16.5056 # Ag
443 443 14 0.00 8.2528 16.5056 16.5056 # Ag
444 444 14 0.00 12.3792 16.5056 16.5056 # Ag
445 445 14 0.00 16.5056 16.5056 16.5056 # Ag
446 446 14 0.00 20.632 16.5056 16.5056 # Ag
447 447 14 0.00 24.7584 16.5056 16.5056 # Ag
448 448 14 0.00 28.8848 16.5056 16.5056 # Ag
449 449 14 0.00 33.0112 16.5056 16.5056 # Ag
450 450 14 0.00 37.1376 16.5056 16.5056 # Ag
451 451 14 0.00 0.0 20.632 16.5056 # Ag
452 452 14 0.00 4.1264 20.632 16.5056 # Ag
453 453 14 0.00 8.2528 20.632 16.5056 # Ag
454 454 14 0.00 12.3792 20.632 16.5056 # Ag
455 455 14 0.00 16.5056 20.632 16.5056 # Ag
456 456 14 0.00 20.632 20.632 16.5056 # Ag
457 457 14 0.00 24.7584 20.632 16.5056 # Ag
458 458 14 0.00 28.8848 20.632 16.5056 # Ag
459 459 14 0.00 33.0112 20.632 16.5056 # Ag
460 460 14 0.00 37.1376 20.632 16.5056 # Ag
461 461 14 0.00 0.0 24.7584 16.5056 # Ag
462 462 14 0.00 4.1264 24.7584 16.5056 # Ag
463 463 14 0.00 8.2528 24.7584 16.5056 # Ag
464 464 14 0.00 12.3792 24.7584 16.5056 # Ag
465 465 14 0.00 16.5056 24.7584 16.5056 # Ag
466 466 14 0.00 20.632 24.7584 16.5056 # Ag
467 467 14 0.00 24.7584 24.7584 16.5056 # Ag
468 468 14 0.00 28.8848 24.7584 16.5056 # Ag
469 469 14 0.00 33.0112 24.7584 16.5056 # Ag
470 470 14 0.00 37.1376 24.7584 16.5056 # Ag
471 471 14 0.00 0.0 28.8848 16.5056 # Ag
472 472 14 0.00 4.1264 28.8848 16.5056 # Ag
473 473 14 0.00 8.2528 28.8848 16.5056 # Ag
474 474 14 0.00 12.3792 28.8848 16.5056 # Ag
475 475 14 0.00 16.5056 28.8848 16.5056 # Ag
476 476 14 0.00 20.632 28.8848 16.5056 # Ag
477 477 14 0.00 24.7584 28.8848 16.5056 # Ag
478 478 14 0.00 28.8848 28.8848 16.5056 # Ag
479 479 14 0.00 33.0112 28.8848 16.5056 # Ag
480 480 14 0.00 37.1376 28.8848 16.5056 # Ag