LAMMPS Description

     3918  atoms
     2888  bonds
     4652  angles
     5360  dihedrals
     20  impropers

     16  atom types
     16  bond types
     30  angle types
     44  dihedral types
     1  improper types

  0.0 33.0112 xlo xhi
  0.0 33.0112 ylo yhi
  0.0 45.7000 zlo zhi

Masses

	1      1.008  # HRA2
	2      1.008  # HGA1
	3      1.008  # HGA2
	4      1.008  # HGA3
	5     12.011  # CG2R53
	6     12.011  # CG311
	7     12.011  # CG321
	8     12.011  # CG331
	9     12.011  # CG3C52
	10    14.007  # NG2R53
	11   15.9994  # OG2D1
    12 1.008    # HCA2
    13 1.008    # HCP1
	14 12.011   # CC32A
	15 15.9994  # OC311
    16 107.8682  # Ag

Bond Coeffs

	1   13.00902   1.530   # CG2R53   CG3C52 
	2   19.94716   1.380   # CG2R53   NG2R53 
	3   24.71714   1.235   # CG2R53   OG2D1  
	4   9.64836    1.538   # CG311    CG321  
	5   9.64836    1.538   # CG311    CG331  
	6   13.39929   1.111   # CG311    HGA1 
	7   13.87629   1.430   # CG311    NG2R53 
	8   13.39929   1.111   # CG321    HGA2 
	9   13.96301   1.111   # CG331    HGA3 
	10  8.45586    1.530   # CG3C52   CG3C52 
	11  13.31256   1.100   # CG3C52   HRA2 
	12  16.04446   1.450   # CG3C52   NG2R53 
    13   9.64860   1.53000  # CC32A    CC32A
    14  13.39962   1.11100  # CC32A    HCA2 
	15  18.56000   1.42000  # CC32A    OC311
	16  23.63364   0.96000  # HCP1 	OC311    

Angle Coeffs

	1   3.03544	106.5  0.00000	0.000    # CG2R53   CG3C52   CG3C52
	2   2.51508	111.0  0.00000	0.000    # CG2R53   CG3C52   HRA2
	3   2.16817	120.0  0.00000	0.000    # CG2R53   NG2R53   CG311 
	4   3.25226	111.0  0.00000	0.000    # CG2R53   NG2R53   CG3C52
	5   2.53025	113.5  0.48394	2.561    # CG311    CG321    CG311 
	6   1.44964	110.1  0.97698	2.179    # CG311    CG321    HGA2
	7   1.44964	110.1  0.97698	2.179    # CG311    CG331    HGA3
	8   2.16817	116.0  0.00000	0.000    # CG311    NG2R53   CG3C52
	9   2.53025	113.5  0.48394	2.561    # CG321    CG311    CG321 
	10  2.31344	114.0  0.34691	2.561    # CG321    CG311    CG331 
	11  1.49604	110.1  0.97698	2.179    # CG321    CG311    HGA1
	12  3.03544	113.5  0.00000	0.000    # CG321    CG311    NG2R53
	13  1.49604	110.1  0.97698	2.179    # CG331    CG311    HGA1
	14  3.03544	113.5  0.00000	0.000    # CG331    CG311    NG2R53
	15  5.20361	105.5  0.00000	0.000    # CG3C52   CG2R53   NG2R53
	16  2.81862	126.7  0.00000	0.000    # CG3C52   CG2R53   OG2D1 
	17  2.51508	109.5  0.48394	2.561    # CG3C52   CG3C52   CG3C52
	18  1.51772	111.4  0.97698	2.179    # CG3C52   CG3C52   HRA2
	19  3.90271	104.5  0.00000	0.000    # CG3C52   CG3C52   NG2R53
	20  2.08144	108.0  0.00000	0.000    # HGA1 CG311    NG2R53  
	21  1.53940	109.0  0.23416	1.802    # HGA2 CG321    HGA2
	22  1.53940	108.4  0.23416	1.802    # HGA3 CG331    HGA3
	23  1.66949	106.8  0.23416	1.802    # HRA2 CG3C52   HRA2
	24  2.55844	111.0  0.00000	0.000    # HRA2 CG3C52   NG2R53  
	25  2.81862	127.8  0.00000	0.000    # NG2R53   CG2R53   OG2D1 
    26  1.14916  110.10000    0.97700    2.17900  # CC32A    CC32A    HCA2 
    27  3.28269  110.10000    0.00000    0.00000  # CC32A    CC32A    OC311
	28  2.16822  106.00000    0.00000    0.00000  # CC32A    OC311    HCP1 
	29  1.53944  109.00000    0.23417    1.80200  # HCA2 	  CC32A    HCA2     
	30  2.38505  108.89000    0.00000    0.00000  # HCA2     CC32A    OC311    

Dihedral Coeffs

	1   0.01474	3	180	 0   # CG2R53   CG3C52   CG3C52   CG3C52  
	2   0.00000	3	0    1   # CG2R53   CG3C52   CG3C52   HRA2  
	3   0.03903	1	0    1   # CG2R53   NG2R53   CG311    CG321   
	4   0.03903	1	0    1   # CG2R53   NG2R53   CG311    CG331   
	5   0.00000	1	0    1   # CG2R53   NG2R53   CG311    HGA1  
	6   0.10017	3	180	 0   # CG2R53   NG2R53   CG3C52   CG3C52  
	7   0.00000	3	0    1   # CG2R53   NG2R53   CG3C52   HRA2  
	8   0.00867	3	0    1   # CG311    CG321    CG311    CG321   
	9   0.00867	3	0    1   # CG311    CG321    CG311    CG331   
	10  0.00846	3	0    1   # CG311    CG321    CG311    HGA1  
	11  0.00867	3	0    1   # CG311    CG321    CG311    NG2R53  
	12  0.04857	2	180	 1   # CG311    NG2R53   CG2R53   CG3C52  
	13  0.10841	2	180	 1   # CG311    NG2R53   CG2R53   OG2D1   
	14  0.02905	3	0    1   # CG311    NG2R53   CG3C52   CG3C52  
	15  0.00000	3	0    1   # CG311    NG2R53   CG3C52   HRA2  
	16  0.00867	3	0    1   # CG321    CG311    CG321    HGA2  
	17  0.00867	3	0    1   # CG321    CG311    CG331    HGA3  
	18  0.00000	1	0    1   # CG321    CG311    NG2R53   CG3C52  
	19  0.00867	3	0    1   # CG331    CG311    CG321    HGA2  
	20  0.00000	1	0    1   # CG331    CG311    NG2R53   CG3C52  
	21  0.01735	2	180	 0   # CG3C52   CG2R53   NG2R53   CG3C52  
	22  0.04553	3	180	 0   # CG3C52   CG3C52   CG2R53   NG2R53  
	23  0.00347	3	0    1   # CG3C52   CG3C52   CG2R53   OG2D1   
	24  0.00824	3	0    1   # CG3C52   CG3C52   CG3C52   HRA2  
	25  0.09236	3	0    0   # CG3C52   CG3C52   CG3C52   NG2R53  
	26  0.11231	2	180	 1   # CG3C52   NG2R53   CG2R53   OG2D1   
	27  0.00000	1	0    1   # CG3C52   NG2R53   CG311    HGA1  
	28  0.00846	3	0    1   # HGA1 CG311    CG321    HGA2  
	29  0.00846	3	0    1   # HGA1 CG311    CG331    HGA3  
	30  0.00867	3	0    1   # HGA2 CG321    CG311    NG2R53    
	31  0.00867	3	0    1   # HGA3 CG331    CG311    NG2R53    
	32  0.00000	3	180	 1   # HRA2 CG3C52   CG2R53   NG2R53    
	33  0.00000	3	0  	 1   # HRA2 CG3C52   CG2R53   OG2D1     
	34  0.00824	3	0  	 1   # HRA2 CG3C52   CG3C52   HRA2  
	35  0.00000	3	180	 1   # HRA2 CG3C52   CG3C52   NG2R53    
    36  0.01735          1        180      1.000  # CC32A    CC32A    OC311    HCP1 
    37  0.00043          2          0      0.000  # CC32A    CC32A    OC311    HCP1 
	38  0.01127          3          0      0.000  # CC32A    CC32A    OC311    HCP1 
	39  0.00824          3          0      1.000  # HCA2     CC32A    CC32A    HCA2         
	40  0.00607          3          0      1.000  # HCA2     CC32A    CC32A    OC311        
	41  0.00781          3          0      1.000  # HCA2     CC32A    OC311    HCP1     
    42  0.01431          1          0      1.000  # OC311    CC32A    CC32A    OC311
	43  0.09410          2          0      0.000  # OC311    CC32A    CC32A    OC311
	44  0.01951          3          0      0.000  # OC311    CC32A    CC32A    OC311

Improper Coeffs

	1   3.90271	0.00000	 # CG2R53   CG3C52   NG2R53   OG2D1

Atoms # full

1 1 16 0.00 0.0 0.0 0.0 # Ag
2 2 16 0.00 4.1264 0.0 0.0 # Ag
3 3 16 0.00 8.2528 0.0 0.0 # Ag
4 4 16 0.00 12.3792 0.0 0.0 # Ag
5 5 16 0.00 16.5056 0.0 0.0 # Ag
6 6 16 0.00 20.632 0.0 0.0 # Ag
7 7 16 0.00 24.7584 0.0 0.0 # Ag
8 8 16 0.00 28.8848 0.0 0.0 # Ag
9 9 16 0.00 0.0 4.1264 0.0 # Ag
10 10 16 0.00 4.1264 4.1264 0.0 # Ag
11 11 16 0.00 8.2528 4.1264 0.0 # Ag
12 12 16 0.00 12.3792 4.1264 0.0 # Ag
13 13 16 0.00 16.5056 4.1264 0.0 # Ag
14 14 16 0.00 20.632 4.1264 0.0 # Ag
15 15 16 0.00 24.7584 4.1264 0.0 # Ag
16 16 16 0.00 28.8848 4.1264 0.0 # Ag
17 17 16 0.00 0.0 8.2528 0.0 # Ag
18 18 16 0.00 4.1264 8.2528 0.0 # Ag
19 19 16 0.00 8.2528 8.2528 0.0 # Ag
20 20 16 0.00 12.3792 8.2528 0.0 # Ag
21 21 16 0.00 16.5056 8.2528 0.0 # Ag
22 22 16 0.00 20.632 8.2528 0.0 # Ag
23 23 16 0.00 24.7584 8.2528 0.0 # Ag
24 24 16 0.00 28.8848 8.2528 0.0 # Ag
25 25 16 0.00 0.0 12.3792 0.0 # Ag
26 26 16 0.00 4.1264 12.3792 0.0 # Ag
27 27 16 0.00 8.2528 12.3792 0.0 # Ag
28 28 16 0.00 12.3792 12.3792 0.0 # Ag
29 29 16 0.00 16.5056 12.3792 0.0 # Ag
30 30 16 0.00 20.632 12.3792 0.0 # Ag
31 31 16 0.00 24.7584 12.3792 0.0 # Ag
32 32 16 0.00 28.8848 12.3792 0.0 # Ag
33 33 16 0.00 0.0 16.5056 0.0 # Ag
34 34 16 0.00 4.1264 16.5056 0.0 # Ag
35 35 16 0.00 8.2528 16.5056 0.0 # Ag
36 36 16 0.00 12.3792 16.5056 0.0 # Ag
37 37 16 0.00 16.5056 16.5056 0.0 # Ag
38 38 16 0.00 20.632 16.5056 0.0 # Ag
39 39 16 0.00 24.7584 16.5056 0.0 # Ag
40 40 16 0.00 28.8848 16.5056 0.0 # Ag
41 41 16 0.00 0.0 20.632 0.0 # Ag
42 42 16 0.00 4.1264 20.632 0.0 # Ag
43 43 16 0.00 8.2528 20.632 0.0 # Ag
44 44 16 0.00 12.3792 20.632 0.0 # Ag
45 45 16 0.00 16.5056 20.632 0.0 # Ag
46 46 16 0.00 20.632 20.632 0.0 # Ag
47 47 16 0.00 24.7584 20.632 0.0 # Ag
48 48 16 0.00 28.8848 20.632 0.0 # Ag
49 49 16 0.00 0.0 24.7584 0.0 # Ag
50 50 16 0.00 4.1264 24.7584 0.0 # Ag
51 51 16 0.00 8.2528 24.7584 0.0 # Ag
52 52 16 0.00 12.3792 24.7584 0.0 # Ag
53 53 16 0.00 16.5056 24.7584 0.0 # Ag
54 54 16 0.00 20.632 24.7584 0.0 # Ag
55 55 16 0.00 24.7584 24.7584 0.0 # Ag
56 56 16 0.00 28.8848 24.7584 0.0 # Ag
57 57 16 0.00 0.0 28.8848 0.0 # Ag
58 58 16 0.00 4.1264 28.8848 0.0 # Ag
59 59 16 0.00 8.2528 28.8848 0.0 # Ag
60 60 16 0.00 12.3792 28.8848 0.0 # Ag
61 61 16 0.00 16.5056 28.8848 0.0 # Ag
62 62 16 0.00 20.632 28.8848 0.0 # Ag
63 63 16 0.00 24.7584 28.8848 0.0 # Ag
64 64 16 0.00 28.8848 28.8848 0.0 # Ag
65 65 16 0.00 0.0 0.0 4.1264 # Ag
66 66 16 0.00 4.1264 0.0 4.1264 # Ag
67 67 16 0.00 8.2528 0.0 4.1264 # Ag
68 68 16 0.00 12.3792 0.0 4.1264 # Ag
69 69 16 0.00 16.5056 0.0 4.1264 # Ag
70 70 16 0.00 20.632 0.0 4.1264 # Ag
71 71 16 0.00 24.7584 0.0 4.1264 # Ag
72 72 16 0.00 28.8848 0.0 4.1264 # Ag
73 73 16 0.00 0.0 4.1264 4.1264 # Ag
74 74 16 0.00 4.1264 4.1264 4.1264 # Ag
75 75 16 0.00 8.2528 4.1264 4.1264 # Ag
76 76 16 0.00 12.3792 4.1264 4.1264 # Ag
77 77 16 0.00 16.5056 4.1264 4.1264 # Ag
78 78 16 0.00 20.632 4.1264 4.1264 # Ag
79 79 16 0.00 24.7584 4.1264 4.1264 # Ag
80 80 16 0.00 28.8848 4.1264 4.1264 # Ag
81 81 16 0.00 0.0 8.2528 4.1264 # Ag
82 82 16 0.00 4.1264 8.2528 4.1264 # Ag
83 83 16 0.00 8.2528 8.2528 4.1264 # Ag
84 84 16 0.00 12.3792 8.2528 4.1264 # Ag
85 85 16 0.00 16.5056 8.2528 4.1264 # Ag
86 86 16 0.00 20.632 8.2528 4.1264 # Ag
87 87 16 0.00 24.7584 8.2528 4.1264 # Ag
88 88 16 0.00 28.8848 8.2528 4.1264 # Ag
89 89 16 0.00 0.0 12.3792 4.1264 # Ag
90 90 16 0.00 4.1264 12.3792 4.1264 # Ag
91 91 16 0.00 8.2528 12.3792 4.1264 # Ag
92 92 16 0.00 12.3792 12.3792 4.1264 # Ag
93 93 16 0.00 16.5056 12.3792 4.1264 # Ag
94 94 16 0.00 20.632 12.3792 4.1264 # Ag
95 95 16 0.00 24.7584 12.3792 4.1264 # Ag
96 96 16 0.00 28.8848 12.3792 4.1264 # Ag
97 97 16 0.00 0.0 16.5056 4.1264 # Ag
98 98 16 0.00 4.1264 16.5056 4.1264 # Ag
99 99 16 0.00 8.2528 16.5056 4.1264 # Ag
100 100 16 0.00 12.3792 16.5056 4.1264 # Ag
101 101 16 0.00 16.5056 16.5056 4.1264 # Ag
102 102 16 0.00 20.632 16.5056 4.1264 # Ag
103 103 16 0.00 24.7584 16.5056 4.1264 # Ag
104 104 16 0.00 28.8848 16.5056 4.1264 # Ag
105 105 16 0.00 0.0 20.632 4.1264 # Ag
106 106 16 0.00 4.1264 20.632 4.1264 # Ag
107 107 16 0.00 8.2528 20.632 4.1264 # Ag
108 108 16 0.00 12.3792 20.632 4.1264 # Ag
109 109 16 0.00 16.5056 20.632 4.1264 # Ag
110 110 16 0.00 20.632 20.632 4.1264 # Ag
111 111 16 0.00 24.7584 20.632 4.1264 # Ag
112 112 16 0.00 28.8848 20.632 4.1264 # Ag
113 113 16 0.00 0.0 24.7584 4.1264 # Ag
114 114 16 0.00 4.1264 24.7584 4.1264 # Ag
115 115 16 0.00 8.2528 24.7584 4.1264 # Ag
116 116 16 0.00 12.3792 24.7584 4.1264 # Ag
117 117 16 0.00 16.5056 24.7584 4.1264 # Ag
118 118 16 0.00 20.632 24.7584 4.1264 # Ag
119 119 16 0.00 24.7584 24.7584 4.1264 # Ag
120 120 16 0.00 28.8848 24.7584 4.1264 # Ag
121 121 16 0.00 0.0 28.8848 4.1264 # Ag
122 122 16 0.00 4.1264 28.8848 4.1264 # Ag
123 123 16 0.00 8.2528 28.8848 4.1264 # Ag
124 124 16 0.00 12.3792 28.8848 4.1264 # Ag
125 125 16 0.00 16.5056 28.8848 4.1264 # Ag
126 126 16 0.00 20.632 28.8848 4.1264 # Ag
127 127 16 0.00 24.7584 28.8848 4.1264 # Ag
128 128 16 0.00 28.8848 28.8848 4.1264 # Ag
129 129 16 0.00 0.0 0.0 8.2528 # Ag
130 130 16 0.00 4.1264 0.0 8.2528 # Ag
131 131 16 0.00 8.2528 0.0 8.2528 # Ag
132 132 16 0.00 12.3792 0.0 8.2528 # Ag
133 133 16 0.00 16.5056 0.0 8.2528 # Ag
134 134 16 0.00 20.632 0.0 8.2528 # Ag
135 135 16 0.00 24.7584 0.0 8.2528 # Ag
136 136 16 0.00 28.8848 0.0 8.2528 # Ag
137 137 16 0.00 0.0 4.1264 8.2528 # Ag
138 138 16 0.00 4.1264 4.1264 8.2528 # Ag
139 139 16 0.00 8.2528 4.1264 8.2528 # Ag
140 140 16 0.00 12.3792 4.1264 8.2528 # Ag
141 141 16 0.00 16.5056 4.1264 8.2528 # Ag
142 142 16 0.00 20.632 4.1264 8.2528 # Ag
143 143 16 0.00 24.7584 4.1264 8.2528 # Ag
144 144 16 0.00 28.8848 4.1264 8.2528 # Ag
145 145 16 0.00 0.0 8.2528 8.2528 # Ag
146 146 16 0.00 4.1264 8.2528 8.2528 # Ag
147 147 16 0.00 8.2528 8.2528 8.2528 # Ag
148 148 16 0.00 12.3792 8.2528 8.2528 # Ag
149 149 16 0.00 16.5056 8.2528 8.2528 # Ag
150 150 16 0.00 20.632 8.2528 8.2528 # Ag
151 151 16 0.00 24.7584 8.2528 8.2528 # Ag
152 152 16 0.00 28.8848 8.2528 8.2528 # Ag
153 153 16 0.00 0.0 12.3792 8.2528 # Ag
154 154 16 0.00 4.1264 12.3792 8.2528 # Ag
155 155 16 0.00 8.2528 12.3792 8.2528 # Ag
156 156 16 0.00 12.3792 12.3792 8.2528 # Ag
157 157 16 0.00 16.5056 12.3792 8.2528 # Ag
158 158 16 0.00 20.632 12.3792 8.2528 # Ag
159 159 16 0.00 24.7584 12.3792 8.2528 # Ag
160 160 16 0.00 28.8848 12.3792 8.2528 # Ag
161 161 16 0.00 0.0 16.5056 8.2528 # Ag
162 162 16 0.00 4.1264 16.5056 8.2528 # Ag
163 163 16 0.00 8.2528 16.5056 8.2528 # Ag
164 164 16 0.00 12.3792 16.5056 8.2528 # Ag
165 165 16 0.00 16.5056 16.5056 8.2528 # Ag
166 166 16 0.00 20.632 16.5056 8.2528 # Ag
167 167 16 0.00 24.7584 16.5056 8.2528 # Ag
168 168 16 0.00 28.8848 16.5056 8.2528 # Ag
169 169 16 0.00 0.0 20.632 8.2528 # Ag
170 170 16 0.00 4.1264 20.632 8.2528 # Ag
171 171 16 0.00 8.2528 20.632 8.2528 # Ag
172 172 16 0.00 12.3792 20.632 8.2528 # Ag
173 173 16 0.00 16.5056 20.632 8.2528 # Ag
174 174 16 0.00 20.632 20.632 8.2528 # Ag
175 175 16 0.00 24.7584 20.632 8.2528 # Ag
176 176 16 0.00 28.8848 20.632 8.2528 # Ag
177 177 16 0.00 0.0 24.7584 8.2528 # Ag
178 178 16 0.00 4.1264 24.7584 8.2528 # Ag
179 179 16 0.00 8.2528 24.7584 8.2528 # Ag
180 180 16 0.00 12.3792 24.7584 8.2528 # Ag
181 181 16 0.00 16.5056 24.7584 8.2528 # Ag
182 182 16 0.00 20.632 24.7584 8.2528 # Ag
183 183 16 0.00 24.7584 24.7584 8.2528 # Ag
184 184 16 0.00 28.8848 24.7584 8.2528 # Ag
185 185 16 0.00 0.0 28.8848 8.2528 # Ag
186 186 16 0.00 4.1264 28.8848 8.2528 # Ag
187 187 16 0.00 8.2528 28.8848 8.2528 # Ag
188 188 16 0.00 12.3792 28.8848 8.2528 # Ag
189 189 16 0.00 16.5056 28.8848 8.2528 # Ag
190 190 16 0.00 20.632 28.8848 8.2528 # Ag
191 191 16 0.00 24.7584 28.8848 8.2528 # Ag
192 192 16 0.00 28.8848 28.8848 8.2528 # Ag
193 193 16 0.00 2.0632 2.0632 0.0 # Ag
194 194 16 0.00 6.1896 2.0632 0.0 # Ag
195 195 16 0.00 10.316 2.0632 0.0 # Ag
196 196 16 0.00 14.4424 2.0632 0.0 # Ag
197 197 16 0.00 18.5688 2.0632 0.0 # Ag
198 198 16 0.00 22.6952 2.0632 0.0 # Ag
199 199 16 0.00 26.8216 2.0632 0.0 # Ag
200 200 16 0.00 30.948 2.0632 0.0 # Ag
201 201 16 0.00 2.0632 6.1896 0.0 # Ag
202 202 16 0.00 6.1896 6.1896 0.0 # Ag
203 203 16 0.00 10.316 6.1896 0.0 # Ag
204 204 16 0.00 14.4424 6.1896 0.0 # Ag
205 205 16 0.00 18.5688 6.1896 0.0 # Ag
206 206 16 0.00 22.6952 6.1896 0.0 # Ag
207 207 16 0.00 26.8216 6.1896 0.0 # Ag
208 208 16 0.00 30.948 6.1896 0.0 # Ag
209 209 16 0.00 2.0632 10.316 0.0 # Ag
210 210 16 0.00 6.1896 10.316 0.0 # Ag
211 211 16 0.00 10.316 10.316 0.0 # Ag
212 212 16 0.00 14.4424 10.316 0.0 # Ag
213 213 16 0.00 18.5688 10.316 0.0 # Ag
214 214 16 0.00 22.6952 10.316 0.0 # Ag
215 215 16 0.00 26.8216 10.316 0.0 # Ag
216 216 16 0.00 30.948 10.316 0.0 # Ag
217 217 16 0.00 2.0632 14.4424 0.0 # Ag
218 218 16 0.00 6.1896 14.4424 0.0 # Ag
219 219 16 0.00 10.316 14.4424 0.0 # Ag
220 220 16 0.00 14.4424 14.4424 0.0 # Ag
221 221 16 0.00 18.5688 14.4424 0.0 # Ag
222 222 16 0.00 22.6952 14.4424 0.0 # Ag
223 223 16 0.00 26.8216 14.4424 0.0 # Ag
224 224 16 0.00 30.948 14.4424 0.0 # Ag
225 225 16 0.00 2.0632 18.5688 0.0 # Ag
226 226 16 0.00 6.1896 18.5688 0.0 # Ag
227 227 16 0.00 10.316 18.5688 0.0 # Ag
228 228 16 0.00 14.4424 18.5688 0.0 # Ag
229 229 16 0.00 18.5688 18.5688 0.0 # Ag
230 230 16 0.00 22.6952 18.5688 0.0 # Ag
231 231 16 0.00 26.8216 18.5688 0.0 # Ag
232 232 16 0.00 30.948 18.5688 0.0 # Ag
233 233 16 0.00 2.0632 22.6952 0.0 # Ag
234 234 16 0.00 6.1896 22.6952 0.0 # Ag
235 235 16 0.00 10.316 22.6952 0.0 # Ag
236 236 16 0.00 14.4424 22.6952 0.0 # Ag
237 237 16 0.00 18.5688 22.6952 0.0 # Ag
238 238 16 0.00 22.6952 22.6952 0.0 # Ag
239 239 16 0.00 26.8216 22.6952 0.0 # Ag
240 240 16 0.00 30.948 22.6952 0.0 # Ag
241 241 16 0.00 2.0632 26.8216 0.0 # Ag
242 242 16 0.00 6.1896 26.8216 0.0 # Ag
243 243 16 0.00 10.316 26.8216 0.0 # Ag
244 244 16 0.00 14.4424 26.8216 0.0 # Ag
245 245 16 0.00 18.5688 26.8216 0.0 # Ag
246 246 16 0.00 22.6952 26.8216 0.0 # Ag
247 247 16 0.00 26.8216 26.8216 0.0 # Ag
248 248 16 0.00 30.948 26.8216 0.0 # Ag
249 249 16 0.00 2.0632 30.948 0.0 # Ag
250 250 16 0.00 6.1896 30.948 0.0 # Ag
251 251 16 0.00 10.316 30.948 0.0 # Ag
252 252 16 0.00 14.4424 30.948 0.0 # Ag
253 253 16 0.00 18.5688 30.948 0.0 # Ag
254 254 16 0.00 22.6952 30.948 0.0 # Ag
255 255 16 0.00 26.8216 30.948 0.0 # Ag
256 256 16 0.00 30.948 30.948 0.0 # Ag
257 257 16 0.00 2.0632 2.0632 4.1264 # Ag
258 258 16 0.00 6.1896 2.0632 4.1264 # Ag
259 259 16 0.00 10.316 2.0632 4.1264 # Ag
260 260 16 0.00 14.4424 2.0632 4.1264 # Ag
261 261 16 0.00 18.5688 2.0632 4.1264 # Ag
262 262 16 0.00 22.6952 2.0632 4.1264 # Ag
263 263 16 0.00 26.8216 2.0632 4.1264 # Ag
264 264 16 0.00 30.948 2.0632 4.1264 # Ag
265 265 16 0.00 2.0632 6.1896 4.1264 # Ag
266 266 16 0.00 6.1896 6.1896 4.1264 # Ag
267 267 16 0.00 10.316 6.1896 4.1264 # Ag
268 268 16 0.00 14.4424 6.1896 4.1264 # Ag
269 269 16 0.00 18.5688 6.1896 4.1264 # Ag
270 270 16 0.00 22.6952 6.1896 4.1264 # Ag
271 271 16 0.00 26.8216 6.1896 4.1264 # Ag
272 272 16 0.00 30.948 6.1896 4.1264 # Ag
273 273 16 0.00 2.0632 10.316 4.1264 # Ag
274 274 16 0.00 6.1896 10.316 4.1264 # Ag
275 275 16 0.00 10.316 10.316 4.1264 # Ag
276 276 16 0.00 14.4424 10.316 4.1264 # Ag
277 277 16 0.00 18.5688 10.316 4.1264 # Ag
278 278 16 0.00 22.6952 10.316 4.1264 # Ag
279 279 16 0.00 26.8216 10.316 4.1264 # Ag
280 280 16 0.00 30.948 10.316 4.1264 # Ag
281 281 16 0.00 2.0632 14.4424 4.1264 # Ag
282 282 16 0.00 6.1896 14.4424 4.1264 # Ag
283 283 16 0.00 10.316 14.4424 4.1264 # Ag
284 284 16 0.00 14.4424 14.4424 4.1264 # Ag
285 285 16 0.00 18.5688 14.4424 4.1264 # Ag
286 286 16 0.00 22.6952 14.4424 4.1264 # Ag
287 287 16 0.00 26.8216 14.4424 4.1264 # Ag
288 288 16 0.00 30.948 14.4424 4.1264 # Ag
289 289 16 0.00 2.0632 18.5688 4.1264 # Ag
290 290 16 0.00 6.1896 18.5688 4.1264 # Ag
291 291 16 0.00 10.316 18.5688 4.1264 # Ag
292 292 16 0.00 14.4424 18.5688 4.1264 # Ag
293 293 16 0.00 18.5688 18.5688 4.1264 # Ag
294 294 16 0.00 22.6952 18.5688 4.1264 # Ag
295 295 16 0.00 26.8216 18.5688 4.1264 # Ag
296 296 16 0.00 30.948 18.5688 4.1264 # Ag
297 297 16 0.00 2.0632 22.6952 4.1264 # Ag
298 298 16 0.00 6.1896 22.6952 4.1264 # Ag
299 299 16 0.00 10.316 22.6952 4.1264 # Ag
300 300 16 0.00 14.4424 22.6952 4.1264 # Ag
301 301 16 0.00 18.5688 22.6952 4.1264 # Ag
302 302 16 0.00 22.6952 22.6952 4.1264 # Ag
303 303 16 0.00 26.8216 22.6952 4.1264 # Ag
304 304 16 0.00 30.948 22.6952 4.1264 # Ag
305 305 16 0.00 2.0632 26.8216 4.1264 # Ag
306 306 16 0.00 6.1896 26.8216 4.1264 # Ag
307 307 16 0.00 10.316 26.8216 4.1264 # Ag
308 308 16 0.00 14.4424 26.8216 4.1264 # Ag
309 309 16 0.00 18.5688 26.8216 4.1264 # Ag
310 310 16 0.00 22.6952 26.8216 4.1264 # Ag
311 311 16 0.00 26.8216 26.8216 4.1264 # Ag
312 312 16 0.00 30.948 26.8216 4.1264 # Ag
313 313 16 0.00 2.0632 30.948 4.1264 # Ag
314 314 16 0.00 6.1896 30.948 4.1264 # Ag
315 315 16 0.00 10.316 30.948 4.1264 # Ag
316 316 16 0.00 14.4424 30.948 4.1264 # Ag
317 317 16 0.00 18.5688 30.948 4.1264 # Ag
318 318 16 0.00 22.6952 30.948 4.1264 # Ag
319 319 16 0.00 26.8216 30.948 4.1264 # Ag
320 320 16 0.00 30.948 30.948 4.1264 # Ag
321 321 16 0.00 2.0632 2.0632 8.2528 # Ag
322 322 16 0.00 6.1896 2.0632 8.2528 # Ag
323 323 16 0.00 10.316 2.0632 8.2528 # Ag
324 324 16 0.00 14.4424 2.0632 8.2528 # Ag
325 325 16 0.00 18.5688 2.0632 8.2528 # Ag
326 326 16 0.00 22.6952 2.0632 8.2528 # Ag
327 327 16 0.00 26.8216 2.0632 8.2528 # Ag
328 328 16 0.00 30.948 2.0632 8.2528 # Ag
329 329 16 0.00 2.0632 6.1896 8.2528 # Ag
330 330 16 0.00 6.1896 6.1896 8.2528 # Ag
331 331 16 0.00 10.316 6.1896 8.2528 # Ag
332 332 16 0.00 14.4424 6.1896 8.2528 # Ag
333 333 16 0.00 18.5688 6.1896 8.2528 # Ag
334 334 16 0.00 22.6952 6.1896 8.2528 # Ag
335 335 16 0.00 26.8216 6.1896 8.2528 # Ag
336 336 16 0.00 30.948 6.1896 8.2528 # Ag
337 337 16 0.00 2.0632 10.316 8.2528 # Ag
338 338 16 0.00 6.1896 10.316 8.2528 # Ag
339 339 16 0.00 10.316 10.316 8.2528 # Ag
340 340 16 0.00 14.4424 10.316 8.2528 # Ag
341 341 16 0.00 18.5688 10.316 8.2528 # Ag
342 342 16 0.00 22.6952 10.316 8.2528 # Ag
343 343 16 0.00 26.8216 10.316 8.2528 # Ag
344 344 16 0.00 30.948 10.316 8.2528 # Ag
345 345 16 0.00 2.0632 14.4424 8.2528 # Ag
346 346 16 0.00 6.1896 14.4424 8.2528 # Ag
347 347 16 0.00 10.316 14.4424 8.2528 # Ag
348 348 16 0.00 14.4424 14.4424 8.2528 # Ag
349 349 16 0.00 18.5688 14.4424 8.2528 # Ag
350 350 16 0.00 22.6952 14.4424 8.2528 # Ag
351 351 16 0.00 26.8216 14.4424 8.2528 # Ag
352 352 16 0.00 30.948 14.4424 8.2528 # Ag
353 353 16 0.00 2.0632 18.5688 8.2528 # Ag
354 354 16 0.00 6.1896 18.5688 8.2528 # Ag
355 355 16 0.00 10.316 18.5688 8.2528 # Ag
356 356 16 0.00 14.4424 18.5688 8.2528 # Ag
357 357 16 0.00 18.5688 18.5688 8.2528 # Ag
358 358 16 0.00 22.6952 18.5688 8.2528 # Ag
359 359 16 0.00 26.8216 18.5688 8.2528 # Ag
360 360 16 0.00 30.948 18.5688 8.2528 # Ag
361 361 16 0.00 2.0632 22.6952 8.2528 # Ag
362 362 16 0.00 6.1896 22.6952 8.2528 # Ag
363 363 16 0.00 10.316 22.6952 8.2528 # Ag
364 364 16 0.00 14.4424 22.6952 8.2528 # Ag
365 365 16 0.00 18.5688 22.6952 8.2528 # Ag
366 366 16 0.00 22.6952 22.6952 8.2528 # Ag
367 367 16 0.00 26.8216 22.6952 8.2528 # Ag
368 368 16 0.00 30.948 22.6952 8.2528 # Ag
369 369 16 0.00 2.0632 26.8216 8.2528 # Ag
370 370 16 0.00 6.1896 26.8216 8.2528 # Ag
371 371 16 0.00 10.316 26.8216 8.2528 # Ag
372 372 16 0.00 14.4424 26.8216 8.2528 # Ag
373 373 16 0.00 18.5688 26.8216 8.2528 # Ag
374 374 16 0.00 22.6952 26.8216 8.2528 # Ag
375 375 16 0.00 26.8216 26.8216 8.2528 # Ag
376 376 16 0.00 30.948 26.8216 8.2528 # Ag
377 377 16 0.00 2.0632 30.948 8.2528 # Ag
378 378 16 0.00 6.1896 30.948 8.2528 # Ag
379 379 16 0.00 10.316 30.948 8.2528 # Ag
380 380 16 0.00 14.4424 30.948 8.2528 # Ag
381 381 16 0.00 18.5688 30.948 8.2528 # Ag
382 382 16 0.00 22.6952 30.948 8.2528 # Ag
383 383 16 0.00 26.8216 30.948 8.2528 # Ag
384 384 16 0.00 30.948 30.948 8.2528 # Ag
385 385 16 0.00 2.0632 0.0 2.0632 # Ag
386 386 16 0.00 6.1896 0.0 2.0632 # Ag
387 387 16 0.00 10.316 0.0 2.0632 # Ag
388 388 16 0.00 14.4424 0.0 2.0632 # Ag
389 389 16 0.00 18.5688 0.0 2.0632 # Ag
390 390 16 0.00 22.6952 0.0 2.0632 # Ag
391 391 16 0.00 26.8216 0.0 2.0632 # Ag
392 392 16 0.00 30.948 0.0 2.0632 # Ag
393 393 16 0.00 2.0632 4.1264 2.0632 # Ag
394 394 16 0.00 6.1896 4.1264 2.0632 # Ag
395 395 16 0.00 10.316 4.1264 2.0632 # Ag
396 396 16 0.00 14.4424 4.1264 2.0632 # Ag
397 397 16 0.00 18.5688 4.1264 2.0632 # Ag
398 398 16 0.00 22.6952 4.1264 2.0632 # Ag
399 399 16 0.00 26.8216 4.1264 2.0632 # Ag
400 400 16 0.00 30.948 4.1264 2.0632 # Ag
401 401 16 0.00 2.0632 8.2528 2.0632 # Ag
402 402 16 0.00 6.1896 8.2528 2.0632 # Ag
403 403 16 0.00 10.316 8.2528 2.0632 # Ag
404 404 16 0.00 14.4424 8.2528 2.0632 # Ag
405 405 16 0.00 18.5688 8.2528 2.0632 # Ag
406 406 16 0.00 22.6952 8.2528 2.0632 # Ag
407 407 16 0.00 26.8216 8.2528 2.0632 # Ag
408 408 16 0.00 30.948 8.2528 2.0632 # Ag
409 409 16 0.00 2.0632 12.3792 2.0632 # Ag
410 410 16 0.00 6.1896 12.3792 2.0632 # Ag
411 411 16 0.00 10.316 12.3792 2.0632 # Ag
412 412 16 0.00 14.4424 12.3792 2.0632 # Ag
413 413 16 0.00 18.5688 12.3792 2.0632 # Ag
414 414 16 0.00 22.6952 12.3792 2.0632 # Ag
415 415 16 0.00 26.8216 12.3792 2.0632 # Ag
416 416 16 0.00 30.948 12.3792 2.0632 # Ag
417 417 16 0.00 2.0632 16.5056 2.0632 # Ag
418 418 16 0.00 6.1896 16.5056 2.0632 # Ag
419 419 16 0.00 10.316 16.5056 2.0632 # Ag
420 420 16 0.00 14.4424 16.5056 2.0632 # Ag
421 421 16 0.00 18.5688 16.5056 2.0632 # Ag
422 422 16 0.00 22.6952 16.5056 2.0632 # Ag
423 423 16 0.00 26.8216 16.5056 2.0632 # Ag
424 424 16 0.00 30.948 16.5056 2.0632 # Ag
425 425 16 0.00 2.0632 20.632 2.0632 # Ag
426 426 16 0.00 6.1896 20.632 2.0632 # Ag
427 427 16 0.00 10.316 20.632 2.0632 # Ag
428 428 16 0.00 14.4424 20.632 2.0632 # Ag
429 429 16 0.00 18.5688 20.632 2.0632 # Ag
430 430 16 0.00 22.6952 20.632 2.0632 # Ag
431 431 16 0.00 26.8216 20.632 2.0632 # Ag
432 432 16 0.00 30.948 20.632 2.0632 # Ag
433 433 16 0.00 2.0632 24.7584 2.0632 # Ag
434 434 16 0.00 6.1896 24.7584 2.0632 # Ag
435 435 16 0.00 10.316 24.7584 2.0632 # Ag
436 436 16 0.00 14.4424 24.7584 2.0632 # Ag
437 437 16 0.00 18.5688 24.7584 2.0632 # Ag
438 438 16 0.00 22.6952 24.7584 2.0632 # Ag
439 439 16 0.00 26.8216 24.7584 2.0632 # Ag
440 440 16 0.00 30.948 24.7584 2.0632 # Ag
441 441 16 0.00 2.0632 28.8848 2.0632 # Ag
442 442 16 0.00 6.1896 28.8848 2.0632 # Ag
443 443 16 0.00 10.316 28.8848 2.0632 # Ag
444 444 16 0.00 14.4424 28.8848 2.0632 # Ag
445 445 16 0.00 18.5688 28.8848 2.0632 # Ag
446 446 16 0.00 22.6952 28.8848 2.0632 # Ag
447 447 16 0.00 26.8216 28.8848 2.0632 # Ag
448 448 16 0.00 30.948 28.8848 2.0632 # Ag
449 449 16 0.00 2.0632 0.0 6.1896 # Ag
450 450 16 0.00 6.1896 0.0 6.1896 # Ag
451 451 16 0.00 10.316 0.0 6.1896 # Ag
452 452 16 0.00 14.4424 0.0 6.1896 # Ag
453 453 16 0.00 18.5688 0.0 6.1896 # Ag
454 454 16 0.00 22.6952 0.0 6.1896 # Ag
455 455 16 0.00 26.8216 0.0 6.1896 # Ag
456 456 16 0.00 30.948 0.0 6.1896 # Ag
457 457 16 0.00 2.0632 4.1264 6.1896 # Ag
458 458 16 0.00 6.1896 4.1264 6.1896 # Ag
459 459 16 0.00 10.316 4.1264 6.1896 # Ag
460 460 16 0.00 14.4424 4.1264 6.1896 # Ag
461 461 16 0.00 18.5688 4.1264 6.1896 # Ag
462 462 16 0.00 22.6952 4.1264 6.1896 # Ag
463 463 16 0.00 26.8216 4.1264 6.1896 # Ag
464 464 16 0.00 30.948 4.1264 6.1896 # Ag
465 465 16 0.00 2.0632 8.2528 6.1896 # Ag
466 466 16 0.00 6.1896 8.2528 6.1896 # Ag
467 467 16 0.00 10.316 8.2528 6.1896 # Ag
468 468 16 0.00 14.4424 8.2528 6.1896 # Ag
469 469 16 0.00 18.5688 8.2528 6.1896 # Ag
470 470 16 0.00 22.6952 8.2528 6.1896 # Ag
471 471 16 0.00 26.8216 8.2528 6.1896 # Ag
472 472 16 0.00 30.948 8.2528 6.1896 # Ag
473 473 16 0.00 2.0632 12.3792 6.1896 # Ag
474 474 16 0.00 6.1896 12.3792 6.1896 # Ag
475 475 16 0.00 10.316 12.3792 6.1896 # Ag
476 476 16 0.00 14.4424 12.3792 6.1896 # Ag
477 477 16 0.00 18.5688 12.3792 6.1896 # Ag
478 478 16 0.00 22.6952 12.3792 6.1896 # Ag
479 479 16 0.00 26.8216 12.3792 6.1896 # Ag
480 480 16 0.00 30.948 12.3792 6.1896 # Ag
481 481 16 0.00 2.0632 16.5056 6.1896 # Ag
482 482 16 0.00 6.1896 16.5056 6.1896 # Ag
483 483 16 0.00 10.316 16.5056 6.1896 # Ag
484 484 16 0.00 14.4424 16.5056 6.1896 # Ag
485 485 16 0.00 18.5688 16.5056 6.1896 # Ag
486 486 16 0.00 22.6952 16.5056 6.1896 # Ag
487 487 16 0.00 26.8216 16.5056 6.1896 # Ag
488 488 16 0.00 30.948 16.5056 6.1896 # Ag
489 489 16 0.00 2.0632 20.632 6.1896 # Ag
490 490 16 0.00 6.1896 20.632 6.1896 # Ag
491 491 16 0.00 10.316 20.632 6.1896 # Ag
492 492 16 0.00 14.4424 20.632 6.1896 # Ag
493 493 16 0.00 18.5688 20.632 6.1896 # Ag
494 494 16 0.00 22.6952 20.632 6.1896 # Ag
495 495 16 0.00 26.8216 20.632 6.1896 # Ag
496 496 16 0.00 30.948 20.632 6.1896 # Ag
497 497 16 0.00 2.0632 24.7584 6.1896 # Ag
498 498 16 0.00 6.1896 24.7584 6.1896 # Ag
499 499 16 0.00 10.316 24.7584 6.1896 # Ag
500 500 16 0.00 14.4424 24.7584 6.1896 # Ag
501 501 16 0.00 18.5688 24.7584 6.1896 # Ag
502 502 16 0.00 22.6952 24.7584 6.1896 # Ag
503 503 16 0.00 26.8216 24.7584 6.1896 # Ag
504 504 16 0.00 30.948 24.7584 6.1896 # Ag
505 505 16 0.00 2.0632 28.8848 6.1896 # Ag
506 506 16 0.00 6.1896 28.8848 6.1896 # Ag
507 507 16 0.00 10.316 28.8848 6.1896 # Ag
508 508 16 0.00 14.4424 28.8848 6.1896 # Ag
509 509 16 0.00 18.5688 28.8848 6.1896 # Ag
510 510 16 0.00 22.6952 28.8848 6.1896 # Ag
511 511 16 0.00 26.8216 28.8848 6.1896 # Ag
512 512 16 0.00 30.948 28.8848 6.1896 # Ag
513 513 16 0.00 2.0632 0.0 10.316 # Ag
514 514 16 0.00 6.1896 0.0 10.316 # Ag
515 515 16 0.00 10.316 0.0 10.316 # Ag
516 516 16 0.00 14.4424 0.0 10.316 # Ag
517 517 16 0.00 18.5688 0.0 10.316 # Ag
518 518 16 0.00 22.6952 0.0 10.316 # Ag
519 519 16 0.00 26.8216 0.0 10.316 # Ag
520 520 16 0.00 30.948 0.0 10.316 # Ag
521 521 16 0.00 2.0632 4.1264 10.316 # Ag
522 522 16 0.00 6.1896 4.1264 10.316 # Ag
523 523 16 0.00 10.316 4.1264 10.316 # Ag
524 524 16 0.00 14.4424 4.1264 10.316 # Ag
525 525 16 0.00 18.5688 4.1264 10.316 # Ag
526 526 16 0.00 22.6952 4.1264 10.316 # Ag
527 527 16 0.00 26.8216 4.1264 10.316 # Ag
528 528 16 0.00 30.948 4.1264 10.316 # Ag
529 529 16 0.00 2.0632 8.2528 10.316 # Ag
530 530 16 0.00 6.1896 8.2528 10.316 # Ag
531 531 16 0.00 10.316 8.2528 10.316 # Ag
532 532 16 0.00 14.4424 8.2528 10.316 # Ag
533 533 16 0.00 18.5688 8.2528 10.316 # Ag
534 534 16 0.00 22.6952 8.2528 10.316 # Ag
535 535 16 0.00 26.8216 8.2528 10.316 # Ag
536 536 16 0.00 30.948 8.2528 10.316 # Ag
537 537 16 0.00 2.0632 12.3792 10.316 # Ag
538 538 16 0.00 6.1896 12.3792 10.316 # Ag
539 539 16 0.00 10.316 12.3792 10.316 # Ag
540 540 16 0.00 14.4424 12.3792 10.316 # Ag
541 541 16 0.00 18.5688 12.3792 10.316 # Ag
542 542 16 0.00 22.6952 12.3792 10.316 # Ag
543 543 16 0.00 26.8216 12.3792 10.316 # Ag
544 544 16 0.00 30.948 12.3792 10.316 # Ag
545 545 16 0.00 2.0632 16.5056 10.316 # Ag
546 546 16 0.00 6.1896 16.5056 10.316 # Ag
547 547 16 0.00 10.316 16.5056 10.316 # Ag
548 548 16 0.00 14.4424 16.5056 10.316 # Ag
549 549 16 0.00 18.5688 16.5056 10.316 # Ag
550 550 16 0.00 22.6952 16.5056 10.316 # Ag
551 551 16 0.00 26.8216 16.5056 10.316 # Ag
552 552 16 0.00 30.948 16.5056 10.316 # Ag
553 553 16 0.00 2.0632 20.632 10.316 # Ag
554 554 16 0.00 6.1896 20.632 10.316 # Ag
555 555 16 0.00 10.316 20.632 10.316 # Ag
556 556 16 0.00 14.4424 20.632 10.316 # Ag
557 557 16 0.00 18.5688 20.632 10.316 # Ag
558 558 16 0.00 22.6952 20.632 10.316 # Ag
559 559 16 0.00 26.8216 20.632 10.316 # Ag
560 560 16 0.00 30.948 20.632 10.316 # Ag
561 561 16 0.00 2.0632 24.7584 10.316 # Ag
562 562 16 0.00 6.1896 24.7584 10.316 # Ag
563 563 16 0.00 10.316 24.7584 10.316 # Ag
564 564 16 0.00 14.4424 24.7584 10.316 # Ag
565 565 16 0.00 18.5688 24.7584 10.316 # Ag
566 566 16 0.00 22.6952 24.7584 10.316 # Ag
567 567 16 0.00 26.8216 24.7584 10.316 # Ag
568 568 16 0.00 30.948 24.7584 10.316 # Ag
569 569 16 0.00 2.0632 28.8848 10.316 # Ag