LAMMPS Description

     2418  atoms
     2223  bonds
     3594  angles
     4149  dihedrals
     36  impropers

     10  atom types
     11  bond types
     18  angle types
     27  dihedral types
     1  improper types

  0.0 30.00 xlo xhi
  0.0 30.00 ylo yhi
  0.0 54.00 zlo zhi

Masses

	1      1.008  # HGA2
    2      1.008  # HGP1
    3     12.011  # CG2R53
    4     12.011  # CG3C52
    5     14.007  # NG2R53
    6    15.9994  # OG2D1
    7 1.008    # HCA2
    8 1.008    # HCP1
	9 12.011   # CC32A
	10 15.9994  # OC311

Bond Coeffs

    1   13.00902   1.53000  # CG2R53   CG3C52
    2   19.94716   1.38000  # CG2R53   NG2R53
	3   24.71714   1.23500  # CG2R53   OG2D1 
	4   8.45586    1.53000  # CG3C52   CG3C52  
	5   13.31256   1.10000  # CG3C52   HGA2
    6   16.04446   1.45000  # CG3C52   NG2R53
	7   20.38080   1.01500  # HGP1 NG2R53  
    8   9.64860   1.53000  # CC32A    CC32A
    9  13.39962   1.11100  # CC32A    HCA2 
	10  18.56000   1.42000  # CC32A    OC311
	11  23.63364   0.96000  # HCP1 	OC311    

Angle Coeffs

    1   3.03544  106.50000    0.00000    0.00000  # CG2R53   CG3C52   CG3C52
    2   2.51508  111.00000    0.00000    0.00000  # CG2R53   CG3C52   HGA2
	3   3.25226  111.00000    0.00000    0.00000  # CG2R53   NG2R53   CG3C52
	4   1.64781  119.50000    0.00000    0.00000  # CG2R53   NG2R53   HGP1   
	5   5.20361  105.50000    0.00000    0.00000  # CG3C52   CG2R53   NG2R53    
	6   2.81862  126.70000    0.00000    0.00000  # CG3C52   CG2R53   OG2D1 
    7   2.51508  109.50000    0.48394    2.56100  # CG3C52   CG3C52   CG3C52
	8   1.51772  111.40000    0.97698    2.17900  # CG3C52   CG3C52   HGA2
	9   3.90271  104.50000    0.00000    0.00000  # CG3C52   CG3C52   NG2R53   
	10  1.64781  116.00000    0.00000    0.00000  # CG3C52   NG2R53   HGP1   
	11  1.66949  106.80000    0.23416    1.80200  # HGA2 CG3C52   HGA2
    12  2.55844  111.00000    0.00000    0.00000  # HGA2 CG3C52   NG2R53  
	13  2.81862  127.80000    0.00000    0.00000  # NG2R53   CG2R53   OG2D1 
    14  1.14916  110.10000    0.97700    2.17900  # CC32A    CC32A    HCA2 
    15  3.28269  110.10000    0.00000    0.00000  # CC32A    CC32A    OC311
	16  2.16822  106.00000    0.00000    0.00000  # CC32A    OC311    HCP1 
	17  1.53944  109.00000    0.23417    1.80200  # HCA2 	  CC32A    HCA2     
	18  2.38505  108.89000    0.00000    0.00000  # HCA2     CC32A    OC311    

Dihedral Coeffs

    1   0.01474          3        180      0.000  # CG2R53   CG3C52   CG3C52   CG3C52
    2   0.00000          3        0        1.000  # CG2R53   CG3C52   CG3C52   HGA2
	3   0.10017          3        180      0.000  # CG2R53   NG2R53   CG3C52   CG3C52
	4   0.00000          3        0        1.000  # CG2R53   NG2R53   CG3C52   HGA2       
	5   0.01735          2        180      0.000  # CG3C52   CG2R53   NG2R53   CG3C52       
	6   0.05507          2        180      1.000  # CG3C52   CG2R53   NG2R53   HGP1   
    7   0.04553          3        180      0.000  # CG3C52   CG3C52   CG2R53   NG2R53
	8   0.00347          3        0        1.000  # CG3C52   CG3C52   CG2R53   OG2D1 
	9   0.00824          3        0        1.000  # CG3C52   CG3C52   CG3C52   HGA2
	10  0.09236          3        0        0.000  # CG3C52   CG3C52   CG3C52   NG2R53
	11  0.03296          3        0        1.000  # CG3C52   CG3C52   NG2R53   HGP1
    12  0.11231          2        180      1.000  # CG3C52   NG2R53   CG2R53   OG2D1 
	13  0.00000          3        180      1.000  # HGA2 CG3C52   CG2R53   NG2R53  
	14  0.00000          3        0        1.000  # HGA2 CG3C52   CG2R53   OG2D1          
	15  0.00824          3        0        1.000  # HGA2 CG3C52   CG3C52   HGA2       
	16  0.00000          3        180      1.000  # HGA2 CG3C52   CG3C52   NG2R53     
    17  0.00000          3        180      1.000  # HGA2 CG3C52   NG2R53   HGP1
	18  0.03729          2        180      1.000  # HGP1 NG2R53   CG2R53   OG2D1   
    19  0.01735          1        180      1.000  # CC32A    CC32A    OC311    HCP1 
    20  0.00043          2          0      0.000  # CC32A    CC32A    OC311    HCP1 
	21  0.01127          3          0      0.000  # CC32A    CC32A    OC311    HCP1 
	22  0.00824          3          0      1.000  # HCA2     CC32A    CC32A    HCA2         
	23  0.00607          3          0      1.000  # HCA2     CC32A    CC32A    OC311        
	24  0.00781          3          0      1.000  # HCA2     CC32A    OC311    HCP1     
    25  0.01431          1          0      1.000  # OC311    CC32A    CC32A    OC311
	26  0.09410          2          0      0.000  # OC311    CC32A    CC32A    OC311
	27  0.01951          3          0      0.000  # OC311    CC32A    CC32A    OC311

Improper Coeffs

	1   3.90271   0.00000  # CG2R53   CG3C52   NG2R53   OG2D1

Atoms # full

1 1 5 -0.58 1.378 -0.727 21.148 # NG2R53
2 1 2 0.36 1.306 -0.611 22.208 # HGP1
3 1 3 0.3 0.243 0.077 20.655 # CG2R53
4 1 6 -0.49 0.258 1.278 21.177 # OG2D1
5 1 4 -0.01 -1.044 -0.654 20.984 # CG3C52
6 1 1 0.09 -1.448 -0.325 21.972 # HGA2
7 1 1 0.09 -1.803 -0.479 20.188 # HGA2
8 1 4 -0.19 -0.636 -2.109 21.052 # CG3C52
9 1 1 0.09 -1.075 -2.685 20.204 # HGA2
10 1 1 0.09 -0.972 -2.562 22.014 # HGA2
11 1 4 0.07 0.888 -2.109 20.965 # CG3C52
12 1 1 0.09 1.331 -2.791 21.73 # HGA2
13 1 1 0.09 1.206 -2.472 19.959 # HGA2
14 2 5 -0.58 1.378 -0.727 31.148 # NG2R53
15 2 2 0.36 1.306 -0.611 32.208 # HGP1
16 2 3 0.3 0.243 0.077 30.655 # CG2R53
17 2 6 -0.49 0.258 1.278 31.177 # OG2D1
18 2 4 -0.01 -1.044 -0.654 30.984 # CG3C52
19 2 1 0.09 -1.448 -0.325 31.972 # HGA2
20 2 1 0.09 -1.803 -0.479 30.188 # HGA2
21 2 4 -0.19 -0.636 -2.109 31.052 # CG3C52
22 2 1 0.09 -1.075 -2.685 30.204 # HGA2
23 2 1 0.09 -0.972 -2.562 32.014 # HGA2
24 2 4 0.07 0.888 -2.109 30.965 # CG3C52
25 2 1 0.09 1.331 -2.791 31.73 # HGA2
26 2 1 0.09 1.206 -2.472 29.959 # HGA2
27 3 5 -0.58 1.378 -0.727 41.148 # NG2R53
28 3 2 0.36 1.306 -0.611 42.208 # HGP1
29 3 3 0.3 0.243 0.077 40.655 # CG2R53
30 3 6 -0.49 0.258 1.278 41.177 # OG2D1
31 3 4 -0.01 -1.044 -0.654 40.984 # CG3C52
32 3 1 0.09 -1.448 -0.325 41.972 # HGA2
33 3 1 0.09 -1.803 -0.479 40.188 # HGA2
34 3 4 -0.19 -0.636 -2.109 41.052 # CG3C52
35 3 1 0.09 -1.075 -2.685 40.204 # HGA2
36 3 1 0.09 -0.972 -2.562 42.014 # HGA2
37 3 4 0.07 0.888 -2.109 40.965 # CG3C52
38 3 1 0.09 1.331 -2.791 41.73 # HGA2
39 3 1 0.09 1.206 -2.472 39.959 # HGA2
40 4 5 -0.58 1.378 -0.727 51.148 # NG2R53
41 4 2 0.36 1.306 -0.611 52.208 # HGP1
42 4 3 0.3 0.243 0.077 50.655 # CG2R53
43 4 6 -0.49 0.258 1.278 51.177 # OG2D1
44 4 4 -0.01 -1.044 -0.654 50.984 # CG3C52
45 4 1 0.09 -1.448 -0.325 51.972 # HGA2
46 4 1 0.09 -1.803 -0.479 50.188 # HGA2
47 4 4 -0.19 -0.636 -2.109 51.052 # CG3C52
48 4 1 0.09 -1.075 -2.685 50.204 # HGA2
49 4 1 0.09 -0.972 -2.562 52.014 # HGA2
50 4 4 0.07 0.888 -2.109 50.965 # CG3C52
51 4 1 0.09 1.331 -2.791 51.73 # HGA2
52 4 1 0.09 1.206 -2.472 49.959 # HGA2
53 5 5 -0.58 1.378 9.273 21.148 # NG2R53
54 5 2 0.36 1.306 9.389 22.208 # HGP1
55 5 3 0.3 0.243 10.077 20.655 # CG2R53
56 5 6 -0.49 0.258 11.278 21.177 # OG2D1
57 5 4 -0.01 -1.044 9.346 20.984 # CG3C52
58 5 1 0.09 -1.448 9.675 21.972 # HGA2
59 5 1 0.09 -1.803 9.521 20.188 # HGA2
60 5 4 -0.19 -0.636 7.891 21.052 # CG3C52
61 5 1 0.09 -1.075 7.315 20.204 # HGA2
62 5 1 0.09 -0.972 7.438 22.014 # HGA2
63 5 4 0.07 0.888 7.891 20.965 # CG3C52
64 5 1 0.09 1.331 7.209 21.73 # HGA2
65 5 1 0.09 1.206 7.528 19.959 # HGA2
66 6 5 -0.58 1.378 9.273 31.148 # NG2R53
67 6 2 0.36 1.306 9.389 32.208 # HGP1
68 6 3 0.3 0.243 10.077 30.655 # CG2R53
69 6 6 -0.49 0.258 11.278 31.177 # OG2D1
70 6 4 -0.01 -1.044 9.346 30.984 # CG3C52
71 6 1 0.09 -1.448 9.675 31.972 # HGA2
72 6 1 0.09 -1.803 9.521 30.188 # HGA2
73 6 4 -0.19 -0.636 7.891 31.052 # CG3C52
74 6 1 0.09 -1.075 7.315 30.204 # HGA2
75 6 1 0.09 -0.972 7.438 32.014 # HGA2
76 6 4 0.07 0.888 7.891 30.965 # CG3C52
77 6 1 0.09 1.331 7.209 31.73 # HGA2
78 6 1 0.09 1.206 7.528 29.959 # HGA2
79 7 5 -0.58 1.378 9.273 41.148 # NG2R53
80 7 2 0.36 1.306 9.389 42.208 # HGP1
81 7 3 0.3 0.243 10.077 40.655 # CG2R53
82 7 6 -0.49 0.258 11.278 41.177 # OG2D1
83 7 4 -0.01 -1.044 9.346 40.984 # CG3C52
84 7 1 0.09 -1.448 9.675 41.972 # HGA2
85 7 1 0.09 -1.803 9.521 40.188 # HGA2
86 7 4 -0.19 -0.636 7.891 41.052 # CG3C52
87 7 1 0.09 -1.075 7.315 40.204 # HGA2
88 7 1 0.09 -0.972 7.438 42.014 # HGA2
89 7 4 0.07 0.888 7.891 40.965 # CG3C52
90 7 1 0.09 1.331 7.209 41.73 # HGA2
91 7 1 0.09 1.206 7.528 39.959 # HGA2
92 8 5 -0.58 1.378 9.273 51.148 # NG2R53
93 8 2 0.36 1.306 9.389 52.208 # HGP1
94 8 3 0.3 0.243 10.077 50.655 # CG2R53
95 8 6 -0.49 0.258 11.278 51.177 # OG2D1
96 8 4 -0.01 -1.044 9.346 50.984 # CG3C52
97 8 1 0.09 -1.448 9.675 51.972 # HGA2
98 8 1 0.09 -1.803 9.521 50.188 # HGA2
99 8 4 -0.19 -0.636 7.891 51.052 # CG3C52
100 8 1 0.09 -1.075 7.315 50.204 # HGA2
101 8 1 0.09 -0.972 7.438 52.014 # HGA2
102 8 4 0.07 0.888 7.891 50.965 # CG3C52
103 8 1 0.09 1.331 7.209 51.73 # HGA2
104 8 1 0.09 1.206 7.528 49.959 # HGA2
105 9 5 -0.58 1.378 19.273 21.148 # NG2R53
106 9 2 0.36 1.306 19.389 22.208 # HGP1
107 9 3 0.3 0.243 20.077 20.655 # CG2R53
108 9 6 -0.49 0.258 21.278 21.177 # OG2D1
109 9 4 -0.01 -1.044 19.346 20.984 # CG3C52
110 9 1 0.09 -1.448 19.675 21.972 # HGA2
111 9 1 0.09 -1.803 19.521 20.188 # HGA2
112 9 4 -0.19 -0.636 17.891 21.052 # CG3C52
113 9 1 0.09 -1.075 17.315 20.204 # HGA2
114 9 1 0.09 -0.972 17.438 22.014 # HGA2
115 9 4 0.07 0.888 17.891 20.965 # CG3C52
116 9 1 0.09 1.331 17.209 21.73 # HGA2
117 9 1 0.09 1.206 17.528 19.959 # HGA2
118 10 5 -0.58 1.378 19.273 31.148 # NG2R53
119 10 2 0.36 1.306 19.389 32.208 # HGP1
120 10 3 0.3 0.243 20.077 30.655 # CG2R53
121 10 6 -0.49 0.258 21.278 31.177 # OG2D1
122 10 4 -0.01 -1.044 19.346 30.984 # CG3C52
123 10 1 0.09 -1.448 19.675 31.972 # HGA2
124 10 1 0.09 -1.803 19.521 30.188 # HGA2
125 10 4 -0.19 -0.636 17.891 31.052 # CG3C52
126 10 1 0.09 -1.075 17.315 30.204 # HGA2
127 10 1 0.09 -0.972 17.438 32.014 # HGA2
128 10 4 0.07 0.888 17.891 30.965 # CG3C52
129 10 1 0.09 1.331 17.209 31.73 # HGA2
130 10 1 0.09 1.206 17.528 29.959 # HGA2
131 11 5 -0.58 1.378 19.273 41.148 # NG2R53
132 11 2 0.36 1.306 19.389 42.208 # HGP1
133 11 3 0.3 0.243 20.077 40.655 # CG2R53
134 11 6 -0.49 0.258 21.278 41.177 # OG2D1
135 11 4 -0.01 -1.044 19.346 40.984 # CG3C52
136 11 1 0.09 -1.448 19.675 41.972 # HGA2
137 11 1 0.09 -1.803 19.521 40.188 # HGA2
138 11 4 -0.19 -0.636 17.891 41.052 # CG3C52
139 11 1 0.09 -1.075 17.315 40.204 # HGA2
140 11 1 0.09 -0.972 17.438 42.014 # HGA2
141 11 4 0.07 0.888 17.891 40.965 # CG3C52
142 11 1 0.09 1.331 17.209 41.73 # HGA2
143 11 1 0.09 1.206 17.528 39.959 # HGA2
144 12 5 -0.58 1.378 19.273 51.148 # NG2R53
145 12 2 0.36 1.306 19.389 52.208 # HGP1
146 12 3 0.3 0.243 20.077 50.655 # CG2R53
147 12 6 -0.49 0.258 21.278 51.177 # OG2D1
148 12 4 -0.01 -1.044 19.346 50.984 # CG3C52
149 12 1 0.09 -1.448 19.675 51.972 # HGA2
150 12 1 0.09 -1.803 19.521 50.188 # HGA2
151 12 4 -0.19 -0.636 17.891 51.052 # CG3C52
152 12 1 0.09 -1.075 17.315 50.204 # HGA2
153 12 1 0.09 -0.972 17.438 52.014 # HGA2
154 12 4 0.07 0.888 17.891 50.965 # CG3C52
155 12 1 0.09 1.331 17.209 51.73 # HGA2
156 12 1 0.09 1.206 17.528 49.959 # HGA2
157 13 5 -0.58 11.378 -0.727 21.148 # NG2R53
158 13 2 0.36 11.306 -0.611 22.208 # HGP1
159 13 3 0.3 10.243 0.077 20.655 # CG2R53
160 13 6 -0.49 10.258 1.278 21.177 # OG2D1
161 13 4 -0.01 8.956 -0.654 20.984 # CG3C52
162 13 1 0.09 8.552 -0.325 21.972 # HGA2
163 13 1 0.09 8.197 -0.479 20.188 # HGA2
164 13 4 -0.19 9.364 -2.109 21.052 # CG3C52
165 13 1 0.09 8.925 -2.685 20.204 # HGA2
166 13 1 0.09 9.028 -2.562 22.014 # HGA2
167 13 4 0.07 10.888 -2.109 20.965 # CG3C52
168 13 1 0.09 11.331 -2.791 21.73 # HGA2
169 13 1 0.09 11.206 -2.472 19.959 # HGA2
170 14 5 -0.58 11.378 -0.727 31.148 # NG2R53
171 14 2 0.36 11.306 -0.611 32.208 # HGP1
172 14 3 0.3 10.243 0.077 30.655 # CG2R53
173 14 6 -0.49 10.258 1.278 31.177 # OG2D1
174 14 4 -0.01 8.956 -0.654 30.984 # CG3C52
175 14 1 0.09 8.552 -0.325 31.972 # HGA2
176 14 1 0.09 8.197 -0.479 30.188 # HGA2
177 14 4 -0.19 9.364 -2.109 31.052 # CG3C52
178 14 1 0.09 8.925 -2.685 30.204 # HGA2
179 14 1 0.09 9.028 -2.562 32.014 # HGA2
180 14 4 0.07 10.888 -2.109 30.965 # CG3C52
181 14 1 0.09 11.331 -2.791 31.73 # HGA2
182 14 1 0.09 11.206 -2.472 29.959 # HGA2
183 15 5 -0.58 11.378 -0.727 41.148 # NG2R53
184 15 2 0.36 11.306 -0.611 42.208 # HGP1
185 15 3 0.3 10.243 0.077 40.655 # CG2R53
186 15 6 -0.49 10.258 1.278 41.177 # OG2D1
187 15 4 -0.01 8.956 -0.654 40.984 # CG3C52
188 15 1 0.09 8.552 -0.325 41.972 # HGA2
189 15 1 0.09 8.197 -0.479 40.188 # HGA2
190 15 4 -0.19 9.364 -2.109 41.052 # CG3C52
191 15 1 0.09 8.925 -2.685 40.204 # HGA2
192 15 1 0.09 9.028 -2.562 42.014 # HGA2
193 15 4 0.07 10.888 -2.109 40.965 # CG3C52
194 15 1 0.09 11.331 -2.791 41.73 # HGA2
195 15 1 0.09 11.206 -2.472 39.959 # HGA2
196 16 5 -0.58 11.378 -0.727 51.148 # NG2R53
197 16 2 0.36 11.306 -0.611 52.208 # HGP1
198 16 3 0.3 10.243 0.077 50.655 # CG2R53
199 16 6 -0.49 10.258 1.278 51.177 # OG2D1
200 16 4 -0.01 8.956 -0.654 50.984 # CG3C52
201 16 1 0.09 8.552 -0.325 51.972 # HGA2
202 16 1 0.09 8.197 -0.479 50.188 # HGA2
203 16 4 -0.19 9.364 -2.109 51.052 # CG3C52
204 16 1 0.09 8.925 -2.685 50.204 # HGA2
205 16 1 0.09 9.028 -2.562 52.014 # HGA2
206 16 4 0.07 10.888 -2.109 50.965 # CG3C52
207 16 1 0.09 11.331 -2.791 51.73 # HGA2
208 16 1 0.09 11.206 -2.472 49.959 # HGA2
209 17 5 -0.58 11.378 9.273 21.148 # NG2R53
210 17 2 0.36 11.306 9.389 22.208 # HGP1
211 17 3 0.3 10.243 10.077 20.655 # CG2R53
212 17 6 -0.49 10.258 11.278 21.177 # OG2D1
213 17 4 -0.01 8.956 9.346 20.984 # CG3C52
214 17 1 0.09 8.552 9.675 21.972 # HGA2
215 17 1 0.09 8.197 9.521 20.188 # HGA2
216 17 4 -0.19 9.364 7.891 21.052 # CG3C52
217 17 1 0.09 8.925 7.315 20.204 # HGA2
218 17 1 0.09 9.028 7.438 22.014 # HGA2
219 17 4 0.07 10.888 7.891 20.965 # CG3C52
220 17 1 0.09 11.331 7.209 21.73 # HGA2
221 17 1 0.09 11.206 7.528 19.959 # HGA2
222 18 5 -0.58 11.378 9.273 31.148 # NG2R53
223 18 2 0.36 11.306 9.389 32.208 # HGP1
224 18 3 0.3 10.243 10.077 30.655 # CG2R53
225 18 6 -0.49 10.258 11.278 31.177 # OG2D1
226 18 4 -0.01 8.956 9.346 30.984 # CG3C52
227 18 1 0.09 8.552 9.675 31.972 # HGA2
228 18 1 0.09 8.197 9.521 30.188 # HGA2
229 18 4 -0.19 9.364 7.891 31.052 # CG3C52
230 18 1 0.09 8.925 7.315 30.204 # HGA2
231 18 1 0.09 9.028 7.438 32.014 # HGA2
232 18 4 0.07 10.888 7.891 30.965 # CG3C52
233 18 1 0.09 11.331 7.209 31.73 # HGA2
234 18 1 0.09 11.206 7.528 29.959 # HGA2
235 19 5 -0.58 11.378 9.273 41.148 # NG2R53
236 19 2 0.36 11.306 9.389 42.208 # HGP1
237 19 3 0.3 10.243 10.077 40.655 # CG2R53
238 19 6 -0.49 10.258 11.278 41.177 # OG2D1
239 19 4 -0.01 8.956 9.346 40.984 # CG3C52
240 19 1 0.09 8.552 9.675 41.972 # HGA2
241 19 1 0.09 8.197 9.521 40.188 # HGA2
242 19 4 -0.19 9.364 7.891 41.052 # CG3C52
243 19 1 0.09 8.925 7.315 40.204 # HGA2
244 19 1 0.09 9.028 7.438 42.014 # HGA2
245 19 4 0.07 10.888 7.891 40.965 # CG3C52
246 19 1 0.09 11.331 7.209 41.73 # HGA2
247 19 1 0.09 11.206 7.528 39.959 # HGA2
248 20 5 -0.58 11.378 9.273 51.148 # NG2R53
249 20 2 0.36 11.306 9.389 52.208 # HGP1
250 20 3 0.3 10.243 10.077 50.655 # CG2R53
251 20 6 -0.49 10.258 11.278 51.177 # OG2D1
252 20 4 -0.01 8.956 9.346 50.984 # CG3C52
253 20 1 0.09 8.552 9.675 51.972 # HGA2
254 20 1 0.09 8.197 9.521 50.188 # HGA2
255 20 4 -0.19 9.364 7.891 51.052 # CG3C52
256 20 1 0.09 8.925 7.315 50.204 # HGA2
257 20 1 0.09 9.028 7.438 52.014 # HGA2
258 20 4 0.07 10.888 7.891 50.965 # CG3C52
259 20 1 0.09 11.331 7.209 51.73 # HGA2
260 20 1 0.09 11.206 7.528 49.959 # HGA2
261 21 5 -0.58 11.378 19.273 21.148 # NG2R53
262 21 2 0.36 11.306 19.389 22.208 # HGP1
263 21 3 0.3 10.243 20.077 20.655 # CG2R53
264 21 6 -0.49 10.258 21.278 21.177 # OG2D1
265 21 4 -0.01 8.956 19.346 20.984 # CG3C52
266 21 1 0.09 8.552 19.675 21.972 # HGA2
267 21 1 0.09 8.197 19.521 20.188 # HGA2
268 21 4 -0.19 9.364 17.891 21.052 # CG3C52
269 21 1 0.09 8.925 17.315 20.204 # HGA2
270 21 1 0.09 9.028 17.438 22.014 # HGA2
271 21 4 0.07 10.888 17.891 20.965 # CG3C52
272 21 1 0.09 11.331 17.209 21.73 # HGA2
273 21 1 0.09 11.206 17.528 19.959 # HGA2
274 22 5 -0.58 11.378 19.273 31.148 # NG2R53
275 22 2 0.36 11.306 19.389 32.208 # HGP1
276 22 3 0.3 10.243 20.077 30.655 # CG2R53
277 22 6 -0.49 10.258 21.278 31.177 # OG2D1
278 22 4 -0.01 8.956 19.346 30.984 # CG3C52
279 22 1 0.09 8.552 19.675 31.972 # HGA2
280 22 1 0.09 8.197 19.521 30.188 # HGA2
281 22 4 -0.19 9.364 17.891 31.052 # CG3C52
282 22 1 0.09 8.925 17.315 30.204 # HGA2
283 22 1 0.09 9.028 17.438 32.014 # HGA2
284 22 4 0.07 10.888 17.891 30.965 # CG3C52
285 22 1 0.09 11.331 17.209 31.73 # HGA2
286 22 1 0.09 11.206 17.528 29.959 # HGA2
287 23 5 -0.58 11.378 19.273 41.148 # NG2R53
288 23 2 0.36 11.306 19.389 42.208 # HGP1
289 23 3 0.3 10.243 20.077 40.655 # CG2R53
290 23 6 -0.49 10.258 21.278 41.177 # OG2D1
291 23 4 -0.01 8.956 19.346 40.984 # CG3C52
292 23 1 0.09 8.552 19.675 41.972 # HGA2
293 23 1 0.09 8.197 19.521 40.188 # HGA2
294 23 4 -0.19 9.364 17.891 41.052 # CG3C52
295 23 1 0.09 8.925 17.315 40.204 # HGA2
296 23 1 0.09 9.028 17.438 42.014 # HGA2
297 23 4 0.07 10.888 17.891 40.965 # CG3C52
298 23 1 0.09 11.331 17.209 41.73 # HGA2
299 23 1 0.09 11.206 17.528 39.959 # HGA2
300 24 5 -0.58 11.378 19.273 51.148 # NG2R53
301 24 2 0.36 11.306 19.389 52.208 # HGP1
302 24 3 0.3 10.243 20.077 50.655 # CG2R53
303 24 6 -0.49 10.258 21.278 51.177 # OG2D1
304 24 4 -0.01 8.956 19.346 50.984 # CG3C52
305 24 1 0.09 8.552 19.675 51.972 # HGA2
306 24 1 0.09 8.197 19.521 50.188 # HGA2
307 24 4 -0.19 9.364 17.891 51.052 # CG3C52
308 24 1 0.09 8.925 17.315 50.204 # HGA2
309 24 1 0.09 9.028 17.438 52.014 # HGA2
310 24 4 0.07 10.888 17.891 50.965 # CG3C52
311 24 1 0.09 11.331 17.209 51.73 # HGA2
312 24 1 0.09 11.206 17.528 49.959 # HGA2
313 25 5 -0.58 21.378 -0.727 21.148 # NG2R53
314 25 2 0.36 21.306 -0.611 22.208 # HGP1
315 25 3 0.3 20.243 0.077 20.655 # CG2R53
316 25 6 -0.49 20.258 1.278 21.177 # OG2D1
317 25 4 -0.01 18.956 -0.654 20.984 # CG3C52
318 25 1 0.09 18.552 -0.325 21.972 # HGA2
319 25 1 0.09 18.197 -0.479 20.188 # HGA2
320 25 4 -0.19 19.364 -2.109 21.052 # CG3C52
321 25 1 0.09 18.925 -2.685 20.204 # HGA2
322 25 1 0.09 19.028 -2.562 22.014 # HGA2
323 25 4 0.07 20.888 -2.109 20.965 # CG3C52
324 25 1 0.09 21.331 -2.791 21.73 # HGA2
325 25 1 0.09 21.206 -2.472 19.959 # HGA2
326 26 5 -0.58 21.378 -0.727 31.148 # NG2R53
327 26 2 0.36 21.306 -0.611 32.208 # HGP1
328 26 3 0.3 20.243 0.077 30.655 # CG2R53
329 26 6 -0.49 20.258 1.278 31.177 # OG2D1
330 26 4 -0.01 18.956 -0.654 30.984 # CG3C52
331 26 1 0.09 18.552 -0.325 31.972 # HGA2
332 26 1 0.09 18.197 -0.479 30.188 # HGA2
333 26 4 -0.19 19.364 -2.109 31.052 # CG3C52
334 26 1 0.09 18.925 -2.685 30.204 # HGA2
335 26 1 0.09 19.028 -2.562 32.014 # HGA2
336 26 4 0.07 20.888 -2.109 30.965 # CG3C52
337 26 1 0.09 21.331 -2.791 31.73 # HGA2
338 26 1 0.09 21.206 -2.472 29.959 # HGA2
339 27 5 -0.58 21.378 -0.727 41.148 # NG2R53
340 27 2 0.36 21.306 -0.611 42.208 # HGP1
341 27 3 0.3 20.243 0.077 40.655 # CG2R53
342 27 6 -0.49 20.258 1.278 41.177 # OG2D1
343 27 4 -0.01 18.956 -0.654 40.984 # CG3C52
344 27 1 0.09 18.552 -0.325 41.972 # HGA2
345 27 1 0.09 18.197 -0.479 40.188 # HGA2
346 27 4 -0.19 19.364 -2.109 41.052 # CG3C52
347 27 1 0.09 18.925 -2.685 40.204 # HGA2
348 27 1 0.09 19.028 -2.562 42.014 # HGA2
349 27 4 0.07 20.888 -2.109 40.965 # CG3C52
350 27 1 0.09 21.331 -2.791 41.73 # HGA2
351 27 1 0.09 21.206 -2.472 39.959 # HGA2
352 28 5 -0.58 21.378 -0.727 51.148 # NG2R53
353 28 2 0.36 21.306 -0.611 52.208 # HGP1
354 28 3 0.3 20.243 0.077 50.655 # CG2R53
355 28 6 -0.49 20.258 1.278 51.177 # OG2D1
356 28 4 -0.01 18.956 -0.654 50.984 # CG3C52
357 28 1 0.09 18.552 -0.325 51.972 # HGA2
358 28 1 0.09 18.197 -0.479 50.188 # HGA2
359 28 4 -0.19 19.364 -2.109 51.052 # CG3C52
360 28 1 0.09 18.925 -2.685 50.204 # HGA2
361 28 1 0.09 19.028 -2.562 52.014 # HGA2
362 28 4 0.07 20.888 -2.109 50.965 # CG3C52
363 28 1 0.09 21.331 -2.791 51.73 # HGA2
364 28 1 0.09 21.206 -2.472 49.959 # HGA2
365 29 5 -0.58 21.378 9.273 21.148 # NG2R53
366 29 2 0.36 21.306 9.389 22.208 # HGP1
367 29 3 0.3 20.243 10.077 20.655 # CG2R53
368 29 6 -0.49 20.258 11.278 21.177 # OG2D1
369 29 4 -0.01 18.956 9.346 20.984 # CG3C52
370 29 1 0.09 18.552 9.675 21.972 # HGA2
371 29 1 0.09 18.197 9.521 20.188 # HGA2
372 29 4 -0.19 19.364 7.891 21.052 # CG3C52
373 29 1 0.09 18.925 7.315 20.204 # HGA2
374 29 1 0.09 19.028 7.438 22.014 # HGA2
375 29 4 0.07 20.888 7.891 20.965 # CG3C52
376 29 1 0.09 21.331 7.209 21.73 # HGA2
377 29 1 0.09 21.206 7.528 19.959 # HGA2
378 30 5 -0.58 21.378 9.273 31.148 # NG2R53
379 30 2 0.36 21.306 9.389 32.208 # HGP1
380 30 3 0.3 20.243 10.077 30.655 # CG2R53
381 30 6 -0.49 20.258 11.278 31.177 # OG2D1
382 30 4 -0.01 18.956 9.346 30.984 # CG3C52
383 30 1 0.09 18.552 9.675 31.972 # HGA2
384 30 1 0.09 18.197 9.521 30.188 # HGA2
385 30 4 -0.19 19.364 7.891 31.052 # CG3C52
386 30 1 0.09 18.925 7.315 30.204 # HGA2
387 30 1 0.09 19.028 7.438 32.014 # HGA2
388 30 4 0.07 20.888 7.891 30.965 # CG3C52
389 30 1 0.09 21.331 7.209 31.73 # HGA2
390 30 1 0.09 21.206 7.528 29.959 # HGA2
391 31 5 -0.58 21.378 9.273 41.148 # NG2R53
392 31 2 0.36 21.306 9.389 42.208 # HGP1
393 31 3 0.3 20.243 10.077 40.655 # CG2R53
394 31 6 -0.49 20.258 11.278 41.177 # OG2D1
395 31 4 -0.01 18.956 9.346 40.984 # CG3C52
396 31 1 0.09 18.552 9.675 41.972 # HGA2
397 31 1 0.09 18.197 9.521 40.188 # HGA2
398 31 4 -0.19 19.364 7.891 41.052 # CG3C52
399 31 1 0.09 18.925 7.315 40.204 # HGA2
400 31 1 0.09 19.028 7.438 42.014 # HGA2
401 31 4 0.07 20.888 7.891 40.965 # CG3C52
402 31 1 0.09 21.331 7.209 41.73 # HGA2
403 31 1 0.09 21.206 7.528 39.959 # HGA2
404 32 5 -0.58 21.378 9.273 51.148 # NG2R53
405 32 2 0.36 21.306 9.389 52.208 # HGP1
406 32 3 0.3 20.243 10.077 50.655 # CG2R53
407 32 6 -0.49 20.258 11.278 51.177 # OG2D1
408 32 4 -0.01 18.956 9.346 50.984 # CG3C52
409 32 1 0.09 18.552 9.675 51.972 # HGA2
410 32 1 0.09 18.197 9.521 50.188 # HGA2
411 32 4 -0.19 19.364 7.891 51.052 # CG3C52
412 32 1 0.09 18.925 7.315 50.204 # HGA2
413 32 1 0.09 19.028 7.438 52.014 # HGA2
414 32 4 0.07 20.888 7.891 50.965 # CG3C52
415 32 1 0.09 21.331 7.209 51.73 # HGA2
416 32 1 0.09 21.206 7.528 49.959 # HGA2
417 33 5 -0.58 21.378 19.273 21.148 # NG2R53
418 33 2 0.36 21.306 19.389 22.208 # HGP1
419 33 3 0.3 20.243 20.077 20.655 # CG2R53
420 33 6 -0.49 20.258 21.278 21.177 # OG2D1
421 33 4 -0.01 18.956 19.346 20.984 # CG3C52
422 33 1 0.09 18.552 19.675 21.972 # HGA2
423 33 1 0.09 18.197 19.521 20.188 # HGA2
424 33 4 -0.19 19.364 17.891 21.052 # CG3C52
425 33 1 0.09 18.925 17.315 20.204 # HGA2
426 33 1 0.09 19.028 17.438 22.014 # HGA2
427 33 4 0.07 20.888 17.891 20.965 # CG3C52
428 33 1 0.09 21.331 17.209 21.73 # HGA2
429 33 1 0.09 21.206 17.528 19.959 # HGA2
430 34 5 -0.58 21.378 19.273 31.148 # NG2R53
431 34 2 0.36 21.306 19.389 32.208 # HGP1
432 34 3 0.3 20.243 20.077 30.655 # CG2R53
433 34 6 -0.49 20.258 21.278 31.177 # OG2D1
434 34 4 -0.01 18.956 19.346 30.984 # CG3C52
435 34 1 0.09 18.552 19.675 31.972 # HGA2
436 34 1 0.09 18.197 19.521 30.188 # HGA2
437 34 4 -0.19 19.364 17.891 31.052 # CG3C52
438 34 1 0.09 18.925 17.315 30.204 # HGA2
439 34 1 0.09 19.028 17.438 32.014 # HGA2
440 34 4 0.07 20.888 17.891 30.965 # CG3C52
441 34 1 0.09 21.331 17.209 31.73 # HGA2
442 34 1 0.09 21.206 17.528 29.959 # HGA2
443 35 5 -0.58 21.378 19.273 41.148 # NG2R53
444 35 2 0.36 21.306 19.389 42.208 # HGP1
445 35 3 0.3 20.243 20.077 40.655 # CG2R53
446 35 6 -0.49 20.258 21.278 41.177 # OG2D1
447 35 4 -0.01 18.956 19.346 40.984 # CG3C52
448 35 1 0.09 18.552 19.675 41.972 # HGA2
449 35 1 0.09 18.197 19.521 40.188 # HGA2
450 35 4 -0.19 19.364 17.891 41.052 # CG3C52
451 35 1 0.09 18.925 17.315 40.204 # HGA2
452 35 1 0.09 19.028 17.438 42.014 # HGA2
453 35 4 0.07 20.888 17.891 40.965 # CG3C52
454 35 1 0.09 21.331 17.209 41.73 # HGA2
455 35 1 0.09 21.206 17.528 39.959 # HGA2
456 36 5 -0.58 21.378 19.273 51.148 # NG2R53
457 36 2 0.36 21.306 19.389 52.208 # HGP1
458 36 3 0.3 20.243 20.077 50.655 # CG2R53
459 36 6 -0.49 20.258 21.278 51.177 # OG2D1
460 36 4 -0.01 18.956 19.346 50.984 # CG3C52
461 36 1 0.09 18.552 19.675 51.972 # HGA2
462 36 1 0.09 18.197 19.521 50.188 # HGA2
463 36 4 -0.19 19.364 17.891 51.052 # CG3C52
464 36 1 0.09 18.925 17.315 50.204 # HGA2
465 36 1 0.09 19.028 17.438 52.014 # HGA2
466 36 4 0.07 20.888 17.891 50.965 # CG3C52
467 36 1 0.09 21.331 17.209 51.73 # HGA2
468 36 1 0.09 21.206 17.528 49.959 # HGA2
469 37 9 0.05 0.954 1.416 1.632 # CC32A
470 37 7 0.09 0.0 1.379 2.179 # HCA2
471 37 7 0.09 0.987 0.599 0.896 # HCA2
472 37 10 -0.65 0.836 2.343 0.978 # OC311
473 37 8 0.42 1.307 2.163 0.0 # HCP1
474 37 9 0.05 1.539 0.923 2.381 # CC32A
475 37 7 0.09 0.706 0.78 3.086 # HCA2
476 37 7 0.09 1.693 0.0 1.803 # HCA2
477 37 10 -0.65 2.546 1.095 3.051 # OC311
478 37 8 0.42 3.157 0.18 3.035 # HCP1
479 38 9 0.05 0.954 1.416 6.632 # CC32A
480 38 7 0.09 0.0 1.379 7.179 # HCA2
481 38 7 0.09 0.987 0.599 5.896 # HCA2
482 38 10 -0.65 0.836 2.343 5.978 # OC311
483 38 8 0.42 1.307 2.163 5.0 # HCP1
484 38 9 0.05 1.539 0.923 7.381 # CC32A
485 38 7 0.09 0.706 0.78 8.086 # HCA2
486 38 7 0.09 1.693 0.0 6.803 # HCA2
487 38 10 -0.65 2.546 1.095 8.051 # OC311
488 38 8 0.42 3.157 0.18 8.035 # HCP1
489 39 9 0.05 0.954 1.416 11.632 # CC32A
490 39 7 0.09 0.0 1.379 12.179 # HCA2
491 39 7 0.09 0.987 0.599 10.896 # HCA2
492 39 10 -0.65 0.836 2.343 10.978 # OC311
493 39 8 0.42 1.307 2.163 10.0 # HCP1
494 39 9 0.05 1.539 0.923 12.381 # CC32A
495 39 7 0.09 0.706 0.78 13.086 # HCA2
496 39 7 0.09 1.693 0.0 11.803 # HCA2
497 39 10 -0.65 2.546 1.095 13.051 # OC311
498 39 8 0.42 3.157 0.18 13.035 # HCP1
499 40 9 0.05 0.954 1.416 16.632 # CC32A
500 40 7 0.09 0.0 1.379 17.179 # HCA2
501 40 7 0.09 0.987 0.599 15.896 # HCA2
502 40 10 -0.65 0.836 2.343 15.978 # OC311
503 40 8 0.42 1.307 2.163 15.0 # HCP1
504 40 9 0.05 1.539 0.923 17.381 # CC32A
505 40 7 0.09 0.706 0.78 18.086 # HCA2
506 40 7 0.09 1.693 0.0 16.803 # HCA2
507 40 10 -0.65 2.546 1.095 18.051 # OC311
508 40 8 0.42 3.157 0.18 18.035 # HCP1
509 41 9 0.05 0.954 5.416 1.632 # CC32A
510 41 7 0.09 0.0 5.379 2.179 # HCA2
511 41 7 0.09 0.987 4.599 0.896 # HCA2
512 41 10 -0.65 0.836 6.343 0.978 # OC311
513 41 8 0.42 1.307 6.163 0.0 # HCP1
514 41 9 0.05 1.539 4.923 2.381 # CC32A
515 41 7 0.09 0.706 4.78 3.086 # HCA2
516 41 7 0.09 1.693 4.0 1.803 # HCA2
517 41 10 -0.65 2.546 5.095 3.051 # OC311
518 41 8 0.42 3.157 4.18 3.035 # HCP1
519 42 9 0.05 0.954 5.416 6.632 # CC32A
520 42 7 0.09 0.0 5.379 7.179 # HCA2
521 42 7 0.09 0.987 4.599 5.896 # HCA2
522 42 10 -0.65 0.836 6.343 5.978 # OC311
523 42 8 0.42 1.307 6.163 5.0 # HCP1
524 42 9 0.05 1.539 4.923 7.381 # CC32A
525 42 7 0.09 0.706 4.78 8.086 # HCA2
526 42 7 0.09 1.693 4.0 6.803 # HCA2
527 42 10 -0.65 2.546 5.095 8.051 # OC311
528 42 8 0.42 3.157 4.18 8.035 # HCP1
529 43 9 0.05 0.954 5.416 11.632 # CC32A
530 43 7 0.09 0.0 5.379 12.179 # HCA2
531 43 7 0.09 0.987 4.599 10.896 # HCA2
532 43 10 -0.65 0.836 6.343 10.978 # OC311
533 43 8 0.42 1.307 6.163 10.0 # HCP1
534 43 9 0.05 1.539 4.923 12.381 # CC32A
535 43 7 0.09 0.706 4.78 13.086 # HCA2
536 43 7 0.09 1.693 4.0 11.803 # HCA2
537 43 10 -0.65 2.546 5.095 13.051 # OC311
538 43 8 0.42 3.157 4.18 13.035 # HCP1
539 44 9 0.05 0.954 5.416 16.632 # CC32A
540 44 7 0.09 0.0 5.379 17.179 # HCA2
541 44 7 0.09 0.987 4.599 15.896 # HCA2
542 44 10 -0.65 0.836 6.343 15.978 # OC311
543 44 8 0.42 1.307 6.163 15.0 # HCP1
544 44 9 0.05 1.539 4.923 17.381 # CC32A
545 44 7 0.09 0.706 4.78 18.086 # HCA2
546 44 7 0.09 1.693 4.0 16.803 # HCA2
547 44 10 -0.65 2.546 5.095 18.051 # OC311
548 44 8 0.42 3.157 4.18 18.035 # HCP1
549 45 9 0.05 0.954 9.416 1.632 # CC32A
550 45 7 0.09 0.0 9.379 2.179 # HCA2
551 45 7 0.09 0.987 8.599 0.896 # HCA2
552 45 10 -0.65 0.836 10.343 0.978 # OC311
553 45 8 0.42 1.307 10.163 0.0 # HCP1
554 45 9 0.05 1.539 8.923 2.381 # CC32A
555 45 7 0.09 0.706 8.78 3.086 # HCA2
556 45 7 0.09 1.693 8.0 1.803 # HCA2
557 45 10 -0.65 2.546 9.095 3.051 # OC311
558 45 8 0.42 3.157 8.18 3.035 # HCP1
559 46 9 0.05 0.954 9.416 6.632 # CC32A
560 46 7 0.09 0.0 9.379 7.179 # HCA2
561 46 7 0.09 0.987 8.599 5.896 # HCA2
562 46 10 -0.65 0.836 10.343 5.978 # OC311
563 46 8 0.42 1.307 10.163 5.0 # HCP1
564 46 9 0.05 1.539 8.923 7.381 # CC32A
565 46 7 0.09 0.706 8.78 8.086 # HCA2
566 46 7 0.09 1.693 8.0 6.803 # HCA2
567 46 10 -0.65 2.546 9.095 8.051 # OC311
568 46 8 0.42 3.157 8.18 8.035 # HCP1
569 47 9 0.05 0.954 9.416 11.632 # CC32A
570 47 7 0.09 0.0 9.379 12.179 # HCA2
571 47 7 0.09 0.987 8.599 10.896 # HCA2
572 47 10 -0.65 0.836 10.343 10.978 # OC311
573 47 8 0.42 1.307 10.163 10.0 # HCP1
574 47 9 0.05 1.539 8.923 12.381 # CC32A
575 47 7 0.09 0.706 8.78 13.086 # HCA2
576 47 7 0.09 1.693 8.0 11.803 # HCA2
577 47 10 -0.65 2.546 9.095 13.051 # OC311
578 47 8 0.42 3.157 8.18 13.035 # HCP1
579 48 9 0.05 0.954 9.416 16.632 # CC32A
580 48 7 0.09 0.0 9.379 17.179 # HCA2
581 48 7 0.09 0.987 8.599 15.896 # HCA2
582 48 10 -0.65 0.836 10.343 15.978 # OC311
583 48 8 0.42 1.307 10.163 15.0 # HCP1
584 48 9 0.05 1.539 8.923 17.381 # CC32A
585 48 7 0.09 0.706 8.78 18.086 # HCA2
586 48 7 0.09 1.693 8.0 16.803 # HCA2
587 48 10 -0.65 2.546 9.095 18.051 # OC311
588 48 8 0.42 3.157 8.18 18.035 # HCP1
589 49 9 0.05 0.954 13.416 1.632 # CC32A
590 49 7 0.09 0.0 13.379 2.179 # HCA2
591 49 7 0.09 0.987 12.599 0.896 # HCA2
592 49 10 -0.65 0.836 14.343 0.978 # OC311
593 49 8 0.42 1.307 14.163 0.0 # HCP1
594 49 9 0.05 1.539 12.923 2.381 # CC32A
595 49 7 0.09 0.706 12.78 3.086 # HCA2
596 49 7 0.09 1.693 12.0 1.803 # HCA2
597 49 10 -0.65 2.546 13.095 3.051 # OC311
598 49 8 0.42 3.157 12.18 3.035 # HCP1
599 50 9 0.05 0.954 13.416 6.632 # CC32A
600 50 7 0.09 0.0 13.379 7.179 # HCA2
601 50 7 0.09 0.987 12.599 5.896 # HCA2
602 50 10 -0.65 0.836 14.343 5.978 # OC311
603 50 8 0.42 1.307 14.163 5.0 # HCP1
604 50 9 0.05 1.539 12.923 7.381 # CC32A
605 50 7 0.09 0.706 12.78 8.086 # HCA2
606 50 7 0.09 1.693 12.0 6.803 # HCA2
607 50 10 -0.65 2.546 13.095 8.051 # OC311
608 50 8 0.42 3.157 12.18 8.035 # HCP1
609 51 9 0.05 0.954 13.416 11.632 # CC32A
610 51 7 0.09 0.0 13.379 12.179 # HCA2