LAMMPS Description

     4088  atoms
     3836  bonds
     6600  angles
     8228  dihedrals
     32  impropers

     13  atom types
     15  bond types
     27  angle types
     47  dihedral types
     1  improper types

  0.0 30.00 xlo xhi
  0.0 30.00 ylo yhi
  0.0 67.00 zlo zhi

Masses

	 1      1.008  # HRA2 
	 2      1.008  # HGA2 
	 3      1.008  # HGA3 
	 4     12.011  # CG2R53 
	 5     12.011  # CG321 
	 6     12.011  # CG331 
	 7     12.011  # CG3C52 
	 8     14.007  # NG2R53 
	 9    15.9994  # OG2D1 
    10 1.008    # HCA2
    11 1.008    # HCP1
	12 12.011   # CC32A
	13 15.9994  # OC311

Bond Coeffs


	 1 13.009020 1.53 # CG2R53 CG3C52 
	 2 19.947164 1.38 # CG2R53 NG2R53 
	 3 24.717138 1.235 # CG2R53 OG2D1 
	 4 9.648357 1.53 # CG321 CG321 
	 5 9.648357 1.528 # CG321 CG331 
	 6 13.399291 1.111 # CG321 HGA2 
	 7 15.064792 1.446 # CG321 NG2R53 
	 8 13.963015 1.111 # CG331 HGA3 
	 9 8.455863 1.53 # CG3C52 CG3C52 
	 10 13.312564 1.1 # CG3C52 HRA2 
	 11 16.044458 1.45 # CG3C52 NG2R53 
    12   9.64860   1.53000  # CC32A    CC32A
    13  13.39962   1.11100  # CC32A    HCA2 
	14  18.56000   1.42000  # CC32A    OC311
	15  23.63364   0.96000  # HCP1 	OC311    

Angle Coeffs


	 1 3.035438 106.500000 0.000000 0 # CG2R53 CG3C52 CG3C52 
	 2 2.515077 111.000000 0.000000 0 # CG2R53 CG3C52 HRA2 
	 3 1.850403 119.479000 0.000000 0 # CG2R53 NG2R53 CG321 
	 4 3.252255 111.000000 0.000000 0 # CG2R53 NG2R53 CG3C52 
	 5 2.530254 113.600000 0.483936 2.561 # CG321 CG321 CG321 
	 6 2.515077 115.000000 0.346907 2.561 # CG321 CG321 CG331 
	 7 1.149130 110.100000 0.976977 2.179 # CG321 CG321 HGA2 
	 8 2.762899 111.767000 0.000000 0 # CG321 CG321 NG2R53 
	 9 1.500374 110.100000 0.976977 2.179 # CG321 CG331 HGA3 
	 10 2.047576 123.379000 0.000000 0 # CG321 NG2R53 CG3C52 
	 11 1.500374 110.100000 0.976977 2.179 # CG331 CG321 HGA2 
	 12 5.203608 105.500000 0.000000 0 # CG3C52 CG2R53 NG2R53 
	 13 2.818621 126.700000 0.000000 0 # CG3C52 CG2R53 OG2D1 
	 14 2.515077 109.500000 0.483936 2.561 # CG3C52 CG3C52 CG3C52 
	 15 1.517719 111.400000 0.976977 2.179 # CG3C52 CG3C52 HRA2 
	 16 3.902706 104.500000 0.000000 0 # CG3C52 CG3C52 NG2R53 
	 17 1.539401 109.000000 0.234162 1.802 # HGA2 CG321 HGA2 
	 18 2.273109 107.167000 0.000000 0 # HGA2 CG321 NG2R53 
	 19 1.539401 108.400000 0.234162 1.802 # HGA3 CG331 HGA3 
	 20 1.669491 106.800000 0.234162 1.802 # HRA2 CG3C52 HRA2 
	 21 2.558441 111.000000 0.000000 0 # HRA2 CG3C52 NG2R53 
	 22 2.818621 127.800000 0.000000 0 # NG2R53 CG2R53 OG2D1 
    23  1.14916  110.10000    0.97700    2.17900  # CC32A    CC32A    HCA2 
    24  3.28269  110.10000    0.00000    0.00000  # CC32A    CC32A    OC311
	25  2.16822  106.00000    0.00000    0.00000  # CC32A    OC311    HCP1 
	26  1.53944  109.00000    0.23417    1.80200  # HCA2 	  CC32A    HCA2     
	27  2.38505  108.89000    0.00000    0.00000  # HCA2     CC32A    OC311    

Dihedral Coeffs


	 1 0.014744 3 180 0 # CG2R53 CG3C52 CG3C52 CG3C52 
	 2 0.000000 3 0 1 # CG2R53 CG3C52 CG3C52 HRA2 
	 3 0.043493 1 0 1 # CG2R53 NG2R53 CG321 CG321 
	 4 0.051082 1 0 1 # CG2R53 NG2R53 CG321 HGA2 
	 5 0.100169 3 180 0 # CG2R53 NG2R53 CG3C52 CG3C52 
	 6 0.000000 3 0 1 # CG2R53 NG2R53 CG3C52 HRA2 
	 7 0.002797 2 0 1 # CG321 CG321 CG321 CG321 
	 8 0.006494 3 180 0 # CG321 CG321 CG321 CG321 
	 9 0.004101 4 0 0 # CG321 CG321 CG321 CG321 
	 10 0.004879 5 0 0 # CG321 CG321 CG321 CG321 
	 11 0.006527 2 0 1 # CG321 CG321 CG321 CG331 
	 12 0.003527 3 180 0 # CG321 CG321 CG321 CG331 
	 13 0.004694 4 0 0 # CG321 CG321 CG321 CG331 
	 14 0.008842 5 0 0 # CG321 CG321 CG321 CG331 
	 15 0.008456 3 0 1 # CG321 CG321 CG321 HGA2 
	 16 0.029964 1 180 1 # CG321 CG321 CG321 NG2R53 
	 17 0.006938 3 0 1 # CG321 CG321 CG331 HGA3 
	 18 0.014093 1 0 1 # CG321 CG321 NG2R53 CG3C52 
	 19 0.045748 3 0 0 # CG321 CG321 NG2R53 CG3C52 
	 20 0.130090 1 0 1 # CG321 NG2R53 CG2R53 CG3C52 
	 21 0.130090 1 180 1 # CG321 NG2R53 CG2R53 OG2D1 
	 22 0.130090 1 0 1 # CG321 NG2R53 CG3C52 CG3C52 
	 23 0.130090 1 180 1 # CG321 NG2R53 CG3C52 HRA2 
	 24 0.007805 3 0 1 # CG331 CG321 CG321 HGA2 
	 25 0.017345 2 180 0 # CG3C52 CG2R53 NG2R53 CG3C52 
	 26 0.045532 3 180 0 # CG3C52 CG3C52 CG2R53 NG2R53 
	 27 0.003469 3 0 1 # CG3C52 CG3C52 CG2R53 OG2D1 
	 28 0.008239 3 0 1 # CG3C52 CG3C52 CG3C52 HRA2 
	 29 0.092364 3 0 0 # CG3C52 CG3C52 CG3C52 NG2R53 
	 30 0.112311 2 180 1 # CG3C52 NG2R53 CG2R53 OG2D1 
	 31 0.007545 1 0 1 # CG3C52 NG2R53 CG321 HGA2 
	 32 0.009540 3 0 1 # HGA2 CG321 CG321 HGA2 
	 33 0.013226 1 180 1 # HGA2 CG321 CG321 NG2R53 
	 34 0.006938 3 0 1 # HGA2 CG321 CG331 HGA3 
	 35 0.000000 3 180 1 # HRA2 CG3C52 CG2R53 NG2R53 
	 36 0.000000 3 0 1 # HRA2 CG3C52 CG2R53 OG2D1 
	 37 0.008239 3 0 1 # HRA2 CG3C52 CG3C52 HRA2 
	 38 0.000000 3 180 1 # HRA2 CG3C52 CG3C52 NG2R53 
    39  0.01735          1        180      1.000  # CC32A    CC32A    OC311    HCP1 
    40  0.00043          2          0      0.000  # CC32A    CC32A    OC311    HCP1 
	41  0.01127          3          0      0.000  # CC32A    CC32A    OC311    HCP1 
	42  0.00824          3          0      1.000  # HCA2     CC32A    CC32A    HCA2         
	43  0.00607          3          0      1.000  # HCA2     CC32A    CC32A    OC311        
	44  0.00781          3          0      1.000  # HCA2     CC32A    OC311    HCP1     
    45  0.01431          1          0      1.000  # OC311    CC32A    CC32A    OC311
	46  0.09410          2          0      0.000  # OC311    CC32A    CC32A    OC311
	47  0.01951          3          0      0.000  # OC311    CC32A    CC32A    OC311

Improper Coeffs


	 1 3.902706 0 # CG2R53 CG3C52 NG2R53 OG2D1 

Atoms # full

1 1 7 -0.101 0.767 -0.583 16.784 # CG3C52 
2 1 7 -0.09 0.178 -0.209 18.152 # CG3C52 
3 1 8 -0.055 1.367 -0.12 18.985 # NG2R53 
4 1 4 -0.023 2.51 0.144 18.272 # CG2R53 
5 1 7 -0.099 2.138 0.096 16.796 # CG3C52 
6 1 2 0.09 0.605 -0.658 20.84 # HGA2 
7 1 5 -0.053 1.322 0.06 20.424 # CG321 
8 1 1 0.09 -0.361 0.749 18.111 # HRA2 
9 1 1 0.09 -0.509 -0.967 18.544 # HRA2 
10 1 1 0.09 0.888 -1.669 16.727 # HRA2 
11 1 1 0.09 0.127 -0.267 15.956 # HRA2 
12 1 2 0.09 2.318 -0.195 20.799 # HGA2 
13 1 9 -0.315 3.612 0.394 18.759 # OG2D1 
14 1 1 0.09 2.909 -0.42 16.22 # HRA2 
15 1 1 0.09 2.084 1.128 16.428 # HRA2 
16 1 5 -0.149 0.962 1.486 20.837 # CG321 
17 1 5 -0.211 0.924 1.656 22.354 # CG321 
18 1 2 0.09 1.706 2.165 20.404 # HGA2 
19 1 2 0.09 -0.013 1.76 20.412 # HGA2 
20 1 2 0.09 0.189 0.961 22.782 # HGA2 
21 1 2 0.09 1.899 1.374 22.773 # HGA2 
22 1 5 -0.251 0.582 3.08 22.786 # CG321 
23 1 5 -0.096 0.548 3.256 24.303 # CG321 
24 1 2 0.09 1.318 3.774 22.357 # HGA2 
25 1 2 0.09 -0.392 3.364 22.366 # HGA2 
26 1 2 0.09 -0.186 2.56 24.732 # HGA2 
27 1 2 0.09 1.523 2.972 24.722 # HGA2 
28 1 5 -0.137 0.207 4.68 24.736 # CG321 
29 1 5 -0.28 0.174 4.857 26.252 # CG321 
30 1 2 0.09 0.942 5.375 24.306 # HGA2 
31 1 2 0.09 -0.767 4.964 24.316 # HGA2 
32 1 2 0.09 -0.56 4.162 26.682 # HGA2 
33 1 2 0.09 1.149 4.573 26.672 # HGA2 
34 1 5 -0.189 -0.166 6.281 26.686 # CG321 
35 1 5 -0.183 -0.2 6.458 28.202 # CG321 
36 1 2 0.09 0.569 6.976 26.256 # HGA2 
37 1 2 0.09 -1.14 6.565 26.266 # HGA2 
38 1 2 0.09 -0.935 5.763 28.632 # HGA2 
39 1 2 0.09 0.775 6.173 28.622 # HGA2 
40 1 5 -0.201 -0.539 7.882 28.636 # CG321 
41 1 5 -0.104 -0.573 8.061 30.152 # CG321 
42 1 2 0.09 0.196 8.577 28.206 # HGA2 
43 1 2 0.09 -1.513 8.167 28.216 # HGA2 
44 1 2 0.09 -1.307 7.366 30.579 # HGA2 
45 1 2 0.09 0.401 7.775 30.569 # HGA2 
46 1 6 -0.253 -0.913 9.488 30.572 # CG331 
47 1 3 0.09 -0.931 9.592 31.661 # HGA3 
48 1 3 0.09 -0.175 10.196 30.18 # HGA3 
49 1 3 0.09 -1.895 9.783 30.19 # HGA3 
50 2 7 -0.101 0.767 6.917 16.784 # CG3C52 
51 2 7 -0.09 0.178 7.291 18.152 # CG3C52 
52 2 8 -0.055 1.367 7.38 18.985 # NG2R53 
53 2 4 -0.023 2.51 7.644 18.272 # CG2R53 
54 2 7 -0.099 2.138 7.596 16.796 # CG3C52 
55 2 2 0.09 0.605 6.842 20.84 # HGA2 
56 2 5 -0.053 1.322 7.56 20.424 # CG321 
57 2 1 0.09 -0.361 8.249 18.111 # HRA2 
58 2 1 0.09 -0.509 6.533 18.544 # HRA2 
59 2 1 0.09 0.888 5.831 16.727 # HRA2 
60 2 1 0.09 0.127 7.233 15.956 # HRA2 
61 2 2 0.09 2.318 7.305 20.799 # HGA2 
62 2 9 -0.315 3.612 7.894 18.759 # OG2D1 
63 2 1 0.09 2.909 7.08 16.22 # HRA2 
64 2 1 0.09 2.084 8.628 16.428 # HRA2 
65 2 5 -0.149 0.962 8.986 20.837 # CG321 
66 2 5 -0.211 0.924 9.156 22.354 # CG321 
67 2 2 0.09 1.706 9.665 20.404 # HGA2 
68 2 2 0.09 -0.013 9.26 20.412 # HGA2 
69 2 2 0.09 0.189 8.461 22.782 # HGA2 
70 2 2 0.09 1.899 8.874 22.773 # HGA2 
71 2 5 -0.251 0.582 10.58 22.786 # CG321 
72 2 5 -0.096 0.548 10.756 24.303 # CG321 
73 2 2 0.09 1.318 11.274 22.357 # HGA2 
74 2 2 0.09 -0.392 10.864 22.366 # HGA2 
75 2 2 0.09 -0.186 10.06 24.732 # HGA2 
76 2 2 0.09 1.523 10.472 24.722 # HGA2 
77 2 5 -0.137 0.207 12.18 24.736 # CG321 
78 2 5 -0.28 0.174 12.357 26.252 # CG321 
79 2 2 0.09 0.942 12.875 24.306 # HGA2 
80 2 2 0.09 -0.767 12.464 24.316 # HGA2 
81 2 2 0.09 -0.56 11.662 26.682 # HGA2 
82 2 2 0.09 1.149 12.073 26.672 # HGA2 
83 2 5 -0.189 -0.166 13.781 26.686 # CG321 
84 2 5 -0.183 -0.2 13.958 28.202 # CG321 
85 2 2 0.09 0.569 14.476 26.256 # HGA2 
86 2 2 0.09 -1.14 14.065 26.266 # HGA2 
87 2 2 0.09 -0.935 13.263 28.632 # HGA2 
88 2 2 0.09 0.775 13.673 28.622 # HGA2 
89 2 5 -0.201 -0.539 15.382 28.636 # CG321 
90 2 5 -0.104 -0.573 15.561 30.152 # CG321 
91 2 2 0.09 0.196 16.077 28.206 # HGA2 
92 2 2 0.09 -1.513 15.667 28.216 # HGA2 
93 2 2 0.09 -1.307 14.866 30.579 # HGA2 
94 2 2 0.09 0.401 15.275 30.569 # HGA2 
95 2 6 -0.253 -0.913 16.988 30.572 # CG331 
96 2 3 0.09 -0.931 17.092 31.661 # HGA3 
97 2 3 0.09 -0.175 17.696 30.18 # HGA3 
98 2 3 0.09 -1.895 17.283 30.19 # HGA3 
99 3 7 -0.101 0.767 14.417 16.784 # CG3C52 
100 3 7 -0.09 0.178 14.791 18.152 # CG3C52 
101 3 8 -0.055 1.367 14.88 18.985 # NG2R53 
102 3 4 -0.023 2.51 15.144 18.272 # CG2R53 
103 3 7 -0.099 2.138 15.096 16.796 # CG3C52 
104 3 2 0.09 0.605 14.342 20.84 # HGA2 
105 3 5 -0.053 1.322 15.06 20.424 # CG321 
106 3 1 0.09 -0.361 15.749 18.111 # HRA2 
107 3 1 0.09 -0.509 14.033 18.544 # HRA2 
108 3 1 0.09 0.888 13.331 16.727 # HRA2 
109 3 1 0.09 0.127 14.733 15.956 # HRA2 
110 3 2 0.09 2.318 14.805 20.799 # HGA2 
111 3 9 -0.315 3.612 15.394 18.759 # OG2D1 
112 3 1 0.09 2.909 14.58 16.22 # HRA2 
113 3 1 0.09 2.084 16.128 16.428 # HRA2 
114 3 5 -0.149 0.962 16.486 20.837 # CG321 
115 3 5 -0.211 0.924 16.656 22.354 # CG321 
116 3 2 0.09 1.706 17.165 20.404 # HGA2 
117 3 2 0.09 -0.013 16.76 20.412 # HGA2 
118 3 2 0.09 0.189 15.961 22.782 # HGA2 
119 3 2 0.09 1.899 16.374 22.773 # HGA2 
120 3 5 -0.251 0.582 18.08 22.786 # CG321 
121 3 5 -0.096 0.548 18.256 24.303 # CG321 
122 3 2 0.09 1.318 18.774 22.357 # HGA2 
123 3 2 0.09 -0.392 18.364 22.366 # HGA2 
124 3 2 0.09 -0.186 17.56 24.732 # HGA2 
125 3 2 0.09 1.523 17.972 24.722 # HGA2 
126 3 5 -0.137 0.207 19.68 24.736 # CG321 
127 3 5 -0.28 0.174 19.857 26.252 # CG321 
128 3 2 0.09 0.942 20.375 24.306 # HGA2 
129 3 2 0.09 -0.767 19.964 24.316 # HGA2 
130 3 2 0.09 -0.56 19.162 26.682 # HGA2 
131 3 2 0.09 1.149 19.573 26.672 # HGA2 
132 3 5 -0.189 -0.166 21.281 26.686 # CG321 
133 3 5 -0.183 -0.2 21.458 28.202 # CG321 
134 3 2 0.09 0.569 21.976 26.256 # HGA2 
135 3 2 0.09 -1.14 21.565 26.266 # HGA2 
136 3 2 0.09 -0.935 20.763 28.632 # HGA2 
137 3 2 0.09 0.775 21.173 28.622 # HGA2 
138 3 5 -0.201 -0.539 22.882 28.636 # CG321 
139 3 5 -0.104 -0.573 23.061 30.152 # CG321 
140 3 2 0.09 0.196 23.577 28.206 # HGA2 
141 3 2 0.09 -1.513 23.167 28.216 # HGA2 
142 3 2 0.09 -1.307 22.366 30.579 # HGA2 
143 3 2 0.09 0.401 22.775 30.569 # HGA2 
144 3 6 -0.253 -0.913 24.488 30.572 # CG331 
145 3 3 0.09 -0.931 24.592 31.661 # HGA3 
146 3 3 0.09 -0.175 25.196 30.18 # HGA3 
147 3 3 0.09 -1.895 24.783 30.19 # HGA3 
148 4 7 -0.101 0.767 21.917 16.784 # CG3C52 
149 4 7 -0.09 0.178 22.291 18.152 # CG3C52 
150 4 8 -0.055 1.367 22.38 18.985 # NG2R53 
151 4 4 -0.023 2.51 22.644 18.272 # CG2R53 
152 4 7 -0.099 2.138 22.596 16.796 # CG3C52 
153 4 2 0.09 0.605 21.842 20.84 # HGA2 
154 4 5 -0.053 1.322 22.56 20.424 # CG321 
155 4 1 0.09 -0.361 23.249 18.111 # HRA2 
156 4 1 0.09 -0.509 21.533 18.544 # HRA2 
157 4 1 0.09 0.888 20.831 16.727 # HRA2 
158 4 1 0.09 0.127 22.233 15.956 # HRA2 
159 4 2 0.09 2.318 22.305 20.799 # HGA2 
160 4 9 -0.315 3.612 22.894 18.759 # OG2D1 
161 4 1 0.09 2.909 22.08 16.22 # HRA2 
162 4 1 0.09 2.084 23.628 16.428 # HRA2 
163 4 5 -0.149 0.962 23.986 20.837 # CG321 
164 4 5 -0.211 0.924 24.156 22.354 # CG321 
165 4 2 0.09 1.706 24.665 20.404 # HGA2 
166 4 2 0.09 -0.013 24.26 20.412 # HGA2 
167 4 2 0.09 0.189 23.461 22.782 # HGA2 
168 4 2 0.09 1.899 23.874 22.773 # HGA2 
169 4 5 -0.251 0.582 25.58 22.786 # CG321 
170 4 5 -0.096 0.548 25.756 24.303 # CG321 
171 4 2 0.09 1.318 26.274 22.357 # HGA2 
172 4 2 0.09 -0.392 25.864 22.366 # HGA2 
173 4 2 0.09 -0.186 25.06 24.732 # HGA2 
174 4 2 0.09 1.523 25.472 24.722 # HGA2 
175 4 5 -0.137 0.207 27.18 24.736 # CG321 
176 4 5 -0.28 0.174 27.357 26.252 # CG321 
177 4 2 0.09 0.942 27.875 24.306 # HGA2 
178 4 2 0.09 -0.767 27.464 24.316 # HGA2 
179 4 2 0.09 -0.56 26.662 26.682 # HGA2 
180 4 2 0.09 1.149 27.073 26.672 # HGA2 
181 4 5 -0.189 -0.166 28.781 26.686 # CG321 
182 4 5 -0.183 -0.2 28.958 28.202 # CG321 
183 4 2 0.09 0.569 29.476 26.256 # HGA2 
184 4 2 0.09 -1.14 29.065 26.266 # HGA2 
185 4 2 0.09 -0.935 28.263 28.632 # HGA2 
186 4 2 0.09 0.775 28.673 28.622 # HGA2 
187 4 5 -0.201 -0.539 30.382 28.636 # CG321 
188 4 5 -0.104 -0.573 30.561 30.152 # CG321 
189 4 2 0.09 0.196 31.077 28.206 # HGA2 
190 4 2 0.09 -1.513 30.667 28.216 # HGA2 
191 4 2 0.09 -1.307 29.866 30.579 # HGA2 
192 4 2 0.09 0.401 30.275 30.569 # HGA2 
193 4 6 -0.253 -0.913 31.988 30.572 # CG331 
194 4 3 0.09 -0.931 32.092 31.661 # HGA3 
195 4 3 0.09 -0.175 32.696 30.18 # HGA3 
196 4 3 0.09 -1.895 32.283 30.19 # HGA3 
197 5 7 -0.101 8.267 -0.583 16.784 # CG3C52 
198 5 7 -0.09 7.678 -0.209 18.152 # CG3C52 
199 5 8 -0.055 8.867 -0.12 18.985 # NG2R53 
200 5 4 -0.023 10.01 0.144 18.272 # CG2R53 
201 5 7 -0.099 9.638 0.096 16.796 # CG3C52 
202 5 2 0.09 8.105 -0.658 20.84 # HGA2 
203 5 5 -0.053 8.822 0.06 20.424 # CG321 
204 5 1 0.09 7.139 0.749 18.111 # HRA2 
205 5 1 0.09 6.991 -0.967 18.544 # HRA2 
206 5 1 0.09 8.388 -1.669 16.727 # HRA2 
207 5 1 0.09 7.627 -0.267 15.956 # HRA2 
208 5 2 0.09 9.818 -0.195 20.799 # HGA2 
209 5 9 -0.315 11.112 0.394 18.759 # OG2D1 
210 5 1 0.09 10.409 -0.42 16.22 # HRA2 
211 5 1 0.09 9.584 1.128 16.428 # HRA2 
212 5 5 -0.149 8.462 1.486 20.837 # CG321 
213 5 5 -0.211 8.424 1.656 22.354 # CG321 
214 5 2 0.09 9.206 2.165 20.404 # HGA2 
215 5 2 0.09 7.487 1.76 20.412 # HGA2 
216 5 2 0.09 7.689 0.961 22.782 # HGA2 
217 5 2 0.09 9.399 1.374 22.773 # HGA2 
218 5 5 -0.251 8.082 3.08 22.786 # CG321 
219 5 5 -0.096 8.048 3.256 24.303 # CG321 
220 5 2 0.09 8.818 3.774 22.357 # HGA2 
221 5 2 0.09 7.108 3.364 22.366 # HGA2 
222 5 2 0.09 7.314 2.56 24.732 # HGA2 
223 5 2 0.09 9.023 2.972 24.722 # HGA2 
224 5 5 -0.137 7.707 4.68 24.736 # CG321 
225 5 5 -0.28 7.674 4.857 26.252 # CG321 
226 5 2 0.09 8.442 5.375 24.306 # HGA2 
227 5 2 0.09 6.733 4.964 24.316 # HGA2 
228 5 2 0.09 6.94 4.162 26.682 # HGA2 
229 5 2 0.09 8.649 4.573 26.672 # HGA2 
230 5 5 -0.189 7.334 6.281 26.686 # CG321 
231 5 5 -0.183 7.3 6.458 28.202 # CG321 
232 5 2 0.09 8.069 6.976 26.256 # HGA2 
233 5 2 0.09 6.36 6.565 26.266 # HGA2 
234 5 2 0.09 6.565 5.763 28.632 # HGA2 
235 5 2 0.09 8.275 6.173 28.622 # HGA2 
236 5 5 -0.201 6.961 7.882 28.636 # CG321 
237 5 5 -0.104 6.927 8.061 30.152 # CG321 
238 5 2 0.09 7.696 8.577 28.206 # HGA2 
239 5 2 0.09 5.987 8.167 28.216 # HGA2 
240 5 2 0.09 6.193 7.366 30.579 # HGA2 
241 5 2 0.09 7.901 7.775 30.569 # HGA2 
242 5 6 -0.253 6.587 9.488 30.572 # CG331 
243 5 3 0.09 6.569 9.592 31.661 # HGA3 
244 5 3 0.09 7.325 10.196 30.18 # HGA3 
245 5 3 0.09 5.605 9.783 30.19 # HGA3 
246 6 7 -0.101 8.267 6.917 16.784 # CG3C52 
247 6 7 -0.09 7.678 7.291 18.152 # CG3C52 
248 6 8 -0.055 8.867 7.38 18.985 # NG2R53 
249 6 4 -0.023 10.01 7.644 18.272 # CG2R53 
250 6 7 -0.099 9.638 7.596 16.796 # CG3C52 
251 6 2 0.09 8.105 6.842 20.84 # HGA2 
252 6 5 -0.053 8.822 7.56 20.424 # CG321 
253 6 1 0.09 7.139 8.249 18.111 # HRA2 
254 6 1 0.09 6.991 6.533 18.544 # HRA2 
255 6 1 0.09 8.388 5.831 16.727 # HRA2 
256 6 1 0.09 7.627 7.233 15.956 # HRA2 
257 6 2 0.09 9.818 7.305 20.799 # HGA2 
258 6 9 -0.315 11.112 7.894 18.759 # OG2D1 
259 6 1 0.09 10.409 7.08 16.22 # HRA2 
260 6 1 0.09 9.584 8.628 16.428 # HRA2 
261 6 5 -0.149 8.462 8.986 20.837 # CG321 
262 6 5 -0.211 8.424 9.156 22.354 # CG321 
263 6 2 0.09 9.206 9.665 20.404 # HGA2 
264 6 2 0.09 7.487 9.26 20.412 # HGA2 
265 6 2 0.09 7.689 8.461 22.782 # HGA2 
266 6 2 0.09 9.399 8.874 22.773 # HGA2 
267 6 5 -0.251 8.082 10.58 22.786 # CG321 
268 6 5 -0.096 8.048 10.756 24.303 # CG321 
269 6 2 0.09 8.818 11.274 22.357 # HGA2 
270 6 2 0.09 7.108 10.864 22.366 # HGA2 
271 6 2 0.09 7.314 10.06 24.732 # HGA2 
272 6 2 0.09 9.023 10.472 24.722 # HGA2 
273 6 5 -0.137 7.707 12.18 24.736 # CG321 
274 6 5 -0.28 7.674 12.357 26.252 # CG321 
275 6 2 0.09 8.442 12.875 24.306 # HGA2 
276 6 2 0.09 6.733 12.464 24.316 # HGA2 
277 6 2 0.09 6.94 11.662 26.682 # HGA2 
278 6 2 0.09 8.649 12.073 26.672 # HGA2 
279 6 5 -0.189 7.334 13.781 26.686 # CG321 
280 6 5 -0.183 7.3 13.958 28.202 # CG321 
281 6 2 0.09 8.069 14.476 26.256 # HGA2 
282 6 2 0.09 6.36 14.065 26.266 # HGA2 
283 6 2 0.09 6.565 13.263 28.632 # HGA2 
284 6 2 0.09 8.275 13.673 28.622 # HGA2 
285 6 5 -0.201 6.961 15.382 28.636 # CG321 
286 6 5 -0.104 6.927 15.561 30.152 # CG321 
287 6 2 0.09 7.696 16.077 28.206 # HGA2 
288 6 2 0.09 5.987 15.667 28.216 # HGA2 
289 6 2 0.09 6.193 14.866 30.579 # HGA2 
290 6 2 0.09 7.901 15.275 30.569 # HGA2 
291 6 6 -0.253 6.587 16.988 30.572 # CG331 
292 6 3 0.09 6.569 17.092 31.661 # HGA3 
293 6 3 0.09 7.325 17.696 30.18 # HGA3 
294 6 3 0.09 5.605 17.283 30.19 # HGA3 
295 7 7 -0.101 8.267 14.417 16.784 # CG3C52 
296 7 7 -0.09 7.678 14.791 18.152 # CG3C52 
297 7 8 -0.055 8.867 14.88 18.985 # NG2R53 
298 7 4 -0.023 10.01 15.144 18.272 # CG2R53 
299 7 7 -0.099 9.638 15.096 16.796 # CG3C52 
300 7 2 0.09 8.105 14.342 20.84 # HGA2 
301 7 5 -0.053 8.822 15.06 20.424 # CG321 
302 7 1 0.09 7.139 15.749 18.111 # HRA2 
303 7 1 0.09 6.991 14.033 18.544 # HRA2 
304 7 1 0.09 8.388 13.331 16.727 # HRA2 
305 7 1 0.09 7.627 14.733 15.956 # HRA2 
306 7 2 0.09 9.818 14.805 20.799 # HGA2 
307 7 9 -0.315 11.112 15.394 18.759 # OG2D1 
308 7 1 0.09 10.409 14.58 16.22 # HRA2 
309 7 1 0.09 9.584 16.128 16.428 # HRA2 
310 7 5 -0.149 8.462 16.486 20.837 # CG321 
311 7 5 -0.211 8.424 16.656 22.354 # CG321 
312 7 2 0.09 9.206 17.165 20.404 # HGA2 
313 7 2 0.09 7.487 16.76 20.412 # HGA2 
314 7 2 0.09 7.689 15.961 22.782 # HGA2 
315 7 2 0.09 9.399 16.374 22.773 # HGA2 
316 7 5 -0.251 8.082 18.08 22.786 # CG321 
317 7 5 -0.096 8.048 18.256 24.303 # CG321 
318 7 2 0.09 8.818 18.774 22.357 # HGA2 
319 7 2 0.09 7.108 18.364 22.366 # HGA2 
320 7 2 0.09 7.314 17.56 24.732 # HGA2 
321 7 2 0.09 9.023 17.972 24.722 # HGA2 
322 7 5 -0.137 7.707 19.68 24.736 # CG321 
323 7 5 -0.28 7.674 19.857 26.252 # CG321 
324 7 2 0.09 8.442 20.375 24.306 # HGA2 
325 7 2 0.09 6.733 19.964 24.316 # HGA2 
326 7 2 0.09 6.94 19.162 26.682 # HGA2 
327 7 2 0.09 8.649 19.573 26.672 # HGA2 
328 7 5 -0.189 7.334 21.281 26.686 # CG321 
329 7 5 -0.183 7.3 21.458 28.202 # CG321 
330 7 2 0.09 8.069 21.976 26.256 # HGA2 
331 7 2 0.09 6.36 21.565 26.266 # HGA2 
332 7 2 0.09 6.565 20.763 28.632 # HGA2 
333 7 2 0.09 8.275 21.173 28.622 # HGA2 
334 7 5 -0.201 6.961 22.882 28.636 # CG321 
335 7 5 -0.104 6.927 23.061 30.152 # CG321 
336 7 2 0.09 7.696 23.577 28.206 # HGA2 
337 7 2 0.09 5.987 23.167 28.216 # HGA2 
338 7 2 0.09 6.193 22.366 30.579 # HGA2 
339 7 2 0.09 7.901 22.775 30.569 # HGA2 
340 7 6 -0.253 6.587 24.488 30.572 # CG331 
341 7 3 0.09 6.569 24.592 31.661 # HGA3 
342 7 3 0.09 7.325 25.196 30.18 # HGA3 
343 7 3 0.09 5.605 24.783 30.19 # HGA3 
344 8 7 -0.101 8.267 21.917 16.784 # CG3C52 
345 8 7 -0.09 7.678 22.291 18.152 # CG3C52 
346 8 8 -0.055 8.867 22.38 18.985 # NG2R53 
347 8 4 -0.023 10.01 22.644 18.272 # CG2R53 
348 8 7 -0.099 9.638 22.596 16.796 # CG3C52 
349 8 2 0.09 8.105 21.842 20.84 # HGA2 
350 8 5 -0.053 8.822 22.56 20.424 # CG321 
351 8 1 0.09 7.139 23.249 18.111 # HRA2 
352 8 1 0.09 6.991 21.533 18.544 # HRA2 
353 8 1 0.09 8.388 20.831 16.727 # HRA2 
354 8 1 0.09 7.627 22.233 15.956 # HRA2 
355 8 2 0.09 9.818 22.305 20.799 # HGA2 
356 8 9 -0.315 11.112 22.894 18.759 # OG2D1 
357 8 1 0.09 10.409 22.08 16.22 # HRA2 
358 8 1 0.09 9.584 23.628 16.428 # HRA2 
359 8 5 -0.149 8.462 23.986 20.837 # CG321 
360 8 5 -0.211 8.424 24.156 22.354 # CG321 
361 8 2 0.09 9.206 24.665 20.404 # HGA2 
362 8 2 0.09 7.487 24.26 20.412 # HGA2 
363 8 2 0.09 7.689 23.461 22.782 # HGA2 
364 8 2 0.09 9.399 23.874 22.773 # HGA2 
365 8 5 -0.251 8.082 25.58 22.786 # CG321 
366 8 5 -0.096 8.048 25.756 24.303 # CG321 
367 8 2 0.09 8.818 26.274 22.357 # HGA2 
368 8 2 0.09 7.108 25.864 22.366 # HGA2 
369 8 2 0.09 7.314 25.06 24.732 # HGA2 
370 8 2 0.09 9.023 25.472 24.722 # HGA2 
371 8 5 -0.137 7.707 27.18 24.736 # CG321 
372 8 5 -0.28 7.674 27.357 26.252 # CG321 
373 8 2 0.09 8.442 27.875 24.306 # HGA2 
374 8 2 0.09 6.733 27.464 24.316 # HGA2 
375 8 2 0.09 6.94 26.662 26.682 # HGA2 
376 8 2 0.09 8.649 27.073 26.672 # HGA2 
377 8 5 -0.189 7.334 28.781 26.686 # CG321 
378 8 5 -0.183 7.3 28.958 28.202 # CG321 
379 8 2 0.09 8.069 29.476 26.256 # HGA2 
380 8 2 0.09 6.36 29.065 26.266 # HGA2 
381 8 2 0.09 6.565 28.263 28.632 # HGA2 
382 8 2 0.09 8.275 28.673 28.622 # HGA2 
383 8 5 -0.201 6.961 30.382 28.636 # CG321 
384 8 5 -0.104 6.927 30.561 30.152 # CG321 
385 8 2 0.09 7.696 31.077 28.206 # HGA2 
386 8 2 0.09 5.987 30.667 28.216 # HGA2 
387 8 2 0.09 6.193 29.866 30.579 # HGA2 
388 8 2 0.09 7.901 30.275 30.569 # HGA2 
389 8 6 -0.253 6.587 31.988 30.572 # CG331 
390 8 3 0.09 6.569 32.092 31.661 # HGA3 
391 8 3 0.09 7.325 32.696 30.18 # HGA3 
392 8 3 0.09 5.605 32.283 30.19 # HGA3 
393 9 7 -0.101 15.767 -0.583 16.784 # CG3C52 
394 9 7 -0.09 15.178 -0.209 18.152 # CG3C52 
395 9 8 -0.055 16.367 -0.12 18.985 # NG2R53 
396 9 4 -0.023 17.51 0.144 18.272 # CG2R53 
397 9 7 -0.099 17.138 0.096 16.796 # CG3C52 
398 9 2 0.09 15.605 -0.658 20.84 # HGA2 
399 9 5 -0.053 16.322 0.06 20.424 # CG321 
400 9 1 0.09 14.639 0.749 18.111 # HRA2 
401 9 1 0.09 14.491 -0.967 18.544 # HRA2 
402 9 1 0.09 15.888 -1.669 16.727 # HRA2 
403 9 1 0.09 15.127 -0.267 15.956 # HRA2 
404 9 2 0.09 17.318 -0.195 20.799 # HGA2 
405 9 9 -0.315 18.612 0.394 18.759 # OG2D1 
406 9 1 0.09 17.909 -0.42 16.22 # HRA2 
407 9 1 0.09 17.084 1.128 16.428 # HRA2 
408 9 5 -0.149 15.962 1.486 20.837 # CG321 
409 9 5 -0.211 15.924 1.656 22.354 # CG321 
410 9 2 0.09 16.706 2.165 20.404 # HGA2 
411 9 2 0.09 14.987 1.76 20.412 # HGA2 
412 9 2 0.09 15.189 0.961 22.782 # HGA2 
413 9 2 0.09 16.899 1.374 22.773 # HGA2 
414 9 5 -0.251 15.582 3.08 22.786 # CG321 
415 9 5 -0.096 15.548 3.256 24.303 # CG321 
416 9 2 0.09 16.318 3.774 22.357 # HGA2 
417 9 2 0.09 14.608 3.364 22.366 # HGA2 
418 9 2 0.09 14.814 2.56 24.732 # HGA2 
419 9 2 0.09 16.523 2.972 24.722 # HGA2 
420 9 5 -0.137 15.207 4.68 24.736 # CG321 
421 9 5 -0.28 15.174 4.857 26.252 # CG321 
422 9 2 0.09 15.942 5.375 24.306 # HGA2 
423 9 2 0.09 14.233 4.964 24.316 # HGA2 
424 9 2 0.09 14.44 4.162 26.682 # HGA2 
425 9 2 0.09 16.149 4.573 26.672 # HGA2 
426 9 5 -0.189 14.834 6.281 26.686 # CG321 
427 9 5 -0.183 14.8 6.458 28.202 # CG321 
428 9 2 0.09 15.569 6.976 26.256 # HGA2 
429 9 2 0.09 13.86 6.565 26.266 # HGA2 
430 9 2 0.09 14.065 5.763 28.632 # HGA2 
431 9 2 0.09 15.775 6.173 28.622 # HGA2 
432 9 5 -0.201 14.461 7.882 28.636 # CG321 
433 9 5 -0.104 14.427 8.061 30.152 # CG321 
434 9 2 0.09 15.196 8.577 28.206 # HGA2 
435 9 2 0.09 13.487 8.167 28.216 # HGA2 
436 9 2 0.09 13.693 7.366 30.579 # HGA2 
437 9 2 0.09 15.401 7.775 30.569 # HGA2 
438 9 6 -0.253 14.087 9.488 30.572 # CG331 
439 9 3 0.09 14.069 9.592 31.661 # HGA3 
440 9 3 0.09 14.825 10.196 30.18 # HGA3 
441 9 3 0.09 13.105 9.783 30.19 # HGA3 
442 10 7 -0.101 15.767 6.917 16.784 # CG3C52 
443 10 7 -0.09 15.178 7.291 18.152 # CG3C52 
444 10 8 -0.055 16.367 7.38 18.985 # NG2R53 
445 10 4 -0.023 17.51 7.644 18.272 # CG2R53 
446 10 7 -0.099 17.138 7.596 16.796 # CG3C52 
447 10 2 0.09 15.605 6.842 20.84 # HGA2 
448 10 5 -0.053 16.322 7.56 20.424 # CG321 
449 10 1 0.09 14.639 8.249 18.111 # HRA2 
450 10 1 0.09 14.491 6.533 18.544 # HRA2 
451 10 1 0.09 15.888 5.831 16.727 # HRA2 
452 10 1 0.09 15.127 7.233 15.956 # HRA2 
453 10 2 0.09 17.318 7.305 20.799 # HGA2 
454 10 9 -0.315 18.612 7.894 18.759 # OG2D1 
455 10 1 0.09 17.909 7.08 16.22 # HRA2 
456 10 1 0.09 17.084 8.628 16.428 # HRA2 
457 10 5 -0.149 15.962 8.986 20.837 # CG321 
458 10 5 -0.211 15.924 9.156 22.354 # CG321 
459 10 2 0.09 16.706 9.665 20.404 # HGA2 
460 10 2 0.09 14.987 9.26 20.412 # HGA2 
461 10 2 0.09 15.189 8.461 22.782 # HGA2 
462 10 2 0.09 16.899 8.874 22.773 # HGA2 
463 10 5 -0.251 15.582 10.58 22.786 # CG321 
464 10 5 -0.096 15.548 10.756 24.303 # CG321 
465 10 2 0.09 16.318 11.274 22.357 # HGA2 
466 10 2 0.09 14.608 10.864 22.366 # HGA2 
467 10 2 0.09 14.814 10.06 24.732 # HGA2 
468 10 2 0.09 16.523 10.472 24.722 # HGA2 
469 10 5 -0.137 15.207 12.18 24.736 # CG321 
470 10 5 -0.28 15.174 12.357 26.252 # CG321 
471 10 2 0.09 15.942 12.875 24.306 # HGA2 
472 10 2 0.09 14.233 12.464 24.316 # HGA2 
473 10 2 0.09 14.44 11.662 26.682 # HGA2 
474 10 2 0.09 16.149 12.073 26.672 # HGA2 
475 10 5 -0.189 14.834 13.781 26.686 # CG321 
476 10 5 -0.183 14.8 13.958 28.202 # CG321 
477 10 2 0.09 15.569 14.476 26.256 # HGA2 
478 10 2 0.09 13.86 14.065 26.266 # HGA2 
479 10 2 0.09 14.065 13.263 28.632 # HGA2 
480 10 2 0.09 15.775 13.673 28.622 # HGA2 
481 10 5 -0.201 14.461 15.382 28.636 # CG321 
482 10 5 -0.104 14.427 15.561 30.152 # CG321 
483 10 2 0.09 15.196 16.077 28.206 # HGA2 
484 10 2 0.09 13.487 15.667 28.216 # HGA2 
485 10 2 0.09 13.693 14.866 30.579 # HGA2 
486 10 2 0.09 15.401 15.275 30.569 # HGA2 
487 10 6 -0.253 14.087 16.988 30.572 # CG331 
488 10 3 0.09 14.069 17.092 31.661 # HGA3 
489 10 3 0.09 14.825 17.696 30.18 # HGA3 
490 10 3 0.09 13.105 17.283 30.19 # HGA3 
491 11 7 -0.101 15.767 14.417 16.784 # CG3C52 
492 11 7 -0.09 15.178 14.791 18.152 # CG3C52 
493 11 8 -0.055 16.367 14.88 18.985 # NG2R53 
494 11 4 -0.023 17.51 15.144 18.272 # CG2R53 
495 11 7 -0.099 17.138 15.096 16.796 # CG3C52 
496 11 2 0.09 15.605 14.342 20.84 # HGA2 
497 11 5 -0.053 16.322 15.06 20.424 # CG321 
498 11 1 0.09 14.639 15.749 18.111 # HRA2 
499 11 1 0.09 14.491 14.033 18.544 # HRA2 
500 11 1 0.09 15.888 13.331 16.727 # HRA2 
501 11 1 0.09 15.127 14.733 15.956 # HRA2 
502 11 2 0.09 17.318 14.805 20.799 # HGA2 
503 11 9 -0.315 18.612 15.394 18.759 # OG2D1 
504 11 1 0.09 17.909 14.58 16.22 # HRA2 
505 11 1 0.09 17.084 16.128 16.428 # HRA2 
506 11 5 -0.149 15.962 16.486 20.837 # CG321 
507 11 5 -0.211 15.924 16.656 22.354 # CG321 
508 11 2 0.09 16.706 17.165 20.404 # HGA2 
509 11 2 0.09 14.987 16.76 20.412 # HGA2 
510 11 2 0.09 15.189 15.961 22.782 # HGA2 
511 11 2 0.09 16.899 16.374 22.773 # HGA2 
512 11 5 -0.251 15.582 18.08 22.786 # CG321 
513 11 5 -0.096 15.548 18.256 24.303 # CG321 
514 11 2 0.09 16.318 18.774 22.357 # HGA2 
515 11 2 0.09 14.608 18.364 22.366 # HGA2 
516 11 2 0.09 14.814 17.56 24.732 # HGA2 
517 11 2 0.09 16.523 17.972 24.722 # HGA2 
518 11 5 -0.137 15.207 19.68 24.736 # CG321 
519 11 5 -0.28 15.174 19.857 26.252 # CG321 
520 11 2 0.09 15.942 20.375 24.306 # HGA2 
521 11 2 0.09 14.233 19.964 24.316 # HGA2 
522 11 2 0.09 14.44 19.162 26.682 # HGA2 
523 11 2 0.09 16.149 19.573 26.672 # HGA2 
524 11 5 -0.189 14.834 21.281 26.686 # CG321 
525 11 5 -0.183 14.8 21.458 28.202 # CG321 
526 11 2 0.09 15.569 21.976 26.256 # HGA2 
527 11 2 0.09 13.86 21.565 26.266 # HGA2 
528 11 2 0.09 14.065 20.763 28.632 # HGA2 
529 11 2 0.09 15.775 21.173 28.622 # HGA2 
530 11 5 -0.201 14.461 22.882 28.636 # CG321 
531 11 5 -0.104 14.427 23.061 30.152 # CG321 
532 11 2 0.09 15.196 23.577 28.206 # HGA2 
533 11 2 0.09 13.487 23.167 28.216 # HGA2 
534 11 2 0.09 13.693 22.366 30.579 # HGA2 
535 11 2 0.09 15.401 22.775 30.569 # HGA2 
536 11 6 -0.253 14.087 24.488 30.572 # CG331 
537 11 3 0.09 14.069 24.592 31.661 # HGA3 
538 11 3 0.09 14.825 25.196 30.18 # HGA3 
539 11 3 0.09 13.105 24.783 30.19 # HGA3 
540 12 7 -0.101 15.767 21.917 16.784 # CG3C52 
541 12 7 -0.09 15.178 22.291 18.152 # CG3C52 
542 12 8 -0.055 16.367 22.38 18.985 # NG2R53 
543 12 4 -0.023 17.51 22.644 18.272 # CG2R53 
544 12 7 -0.099 17.138 22.596 16.796 # CG3C52 
545 12 2 0.09 15.605 21.842 20.84 # HGA2 
546 12 5 -0.053 16.322 22.56 20.424 # CG321 
547 12 1 0.09 14.639 23.249 18.111 # HRA2 
548 12 1 0.09 14.491 21.533 18.544 # HRA2 
549 12 1 0.09 15.888 20.831 16.727 # HRA2 
550 12 1 0.09 15.127 22.233 15.956 # HRA2 
551 12 2 0.09 17.318 22.305 20.799 # HGA2 
552 12 9 -0.315 18.612 22.894 18.759 # OG2D1 
553 12 1 0.09 17.909 22.08 16.22 # HRA2 
554 12 1 0.09 17.084 23.628 16.428 # HRA2 
555 12 5 -0.149 15.962 23.986 20.837 # CG321 
556 12 5 -0.211 15.924 24.156 22.354 # CG321 
557 12 2 0.09 16.706 24.665 20.404 # HGA2 
558 12 2 0.09 14.987 24.26 20.412 # HGA2 
559 12 2 0.09 15.189 23.461 22.782 # HGA2 
560 12 2 0.09 16.899 23.874 22.773 # HGA2 
561 12 5 -0.251 15.582 25.58 22.786 # CG321 
562 12 5 -0.096 15.548 25.756 24.303 # CG321 
563 12 2 0.09 16.318 26.274 22.357 # HGA2 
564 12 2 0.09 14.608 25.864 22.366 # HGA2 
565 12 2 0.09 14.814 25.06 24.732 # HGA2 
566 12 2 0.09 16.523 25.472 24.722 # HGA2 
567 12 5 -0.137 15.207 27.18 24.736 # CG321 
568 12 5 -0.28 15.174 27.357 26.252 # CG321 
569 12 2 0.09 15.942 27.875 24.306 # HGA2 
570 12 2 0.09 14.233 27.464 24.316 # HGA2 
571 12 2 0.09 14.44 26.662 26.682 # HGA2 
572 12 2 0.09 16.149 27.073 26.672 # HGA2 
573 12 5 -0.189 14.834 28.781 26.686 # CG321 
574 12 5 -0.183 14.8 28.958 28.202 # CG321 
575 12 2 0.09 15.569 29.476 26.256 # HGA2 
576 12 2 0.09 13.86 29.065 26.266 # HGA2 
577 12 2 0.09 14.065 28.263 28.632 # HGA2 
578 12 2 0.09 15.775 28.673 28.622 # HGA2 
579 12 5 -0.201 14.461 30.382 28.636 # CG321 
580 12 5 -0.104 14.427 30.561 30.152 # CG321 