LAMMPS Description

     3402  atoms
     3150  bonds
     5256  angles
     6282  dihedrals
     18  impropers

     13  atom types
     15  bond types
     27  angle types
     47  dihedral types
     1  improper types

  0.0 30.00 xlo xhi
  0.0 30.00 ylo yhi
  0.0 67.00 zlo zhi

Masses

	 1      1.008  # HRA2 
	 2      1.008  # HGA2 
	 3      1.008  # HGA3 
	 4     12.011  # CG2R53 
	 5     12.011  # CG321 
	 6     12.011  # CG331 
	 7     12.011  # CG3C52 
	 8     14.007  # NG2R53 
	 9    15.9994  # OG2D1 
    10 1.008    # HCA2
    11 1.008    # HCP1
	12 12.011   # CC32A
	13 15.9994  # OC311

Bond Coeffs


	 1 13.009020 1.53 # CG2R53 CG3C52 
	 2 19.947164 1.38 # CG2R53 NG2R53 
	 3 24.717138 1.235 # CG2R53 OG2D1 
	 4 9.648357 1.53 # CG321 CG321 
	 5 9.648357 1.528 # CG321 CG331 
	 6 13.399291 1.111 # CG321 HGA2 
	 7 15.064792 1.446 # CG321 NG2R53 
	 8 13.963015 1.111 # CG331 HGA3 
	 9 8.455863 1.53 # CG3C52 CG3C52 
	 10 13.312564 1.1 # CG3C52 HRA2 
	 11 16.044458 1.45 # CG3C52 NG2R53 
    12   9.64860   1.53000  # CC32A    CC32A
    13  13.39962   1.11100  # CC32A    HCA2 
	14  18.56000   1.42000  # CC32A    OC311
	15  23.63364   0.96000  # HCP1 	OC311    

Angle Coeffs


	 1 3.035438 106.500000 0.000000 0 # CG2R53 CG3C52 CG3C52 
	 2 2.515077 111.000000 0.000000 0 # CG2R53 CG3C52 HRA2 
	 3 1.850403 119.479000 0.000000 0 # CG2R53 NG2R53 CG321 
	 4 3.252255 111.000000 0.000000 0 # CG2R53 NG2R53 CG3C52 
	 5 2.530254 113.600000 0.483936 2.561 # CG321 CG321 CG321 
	 6 2.515077 115.000000 0.346907 2.561 # CG321 CG321 CG331 
	 7 1.149130 110.100000 0.976977 2.179 # CG321 CG321 HGA2 
	 8 2.762899 111.767000 0.000000 0 # CG321 CG321 NG2R53 
	 9 1.500374 110.100000 0.976977 2.179 # CG321 CG331 HGA3 
	 10 2.047576 123.379000 0.000000 0 # CG321 NG2R53 CG3C52 
	 11 1.500374 110.100000 0.976977 2.179 # CG331 CG321 HGA2 
	 12 5.203608 105.500000 0.000000 0 # CG3C52 CG2R53 NG2R53 
	 13 2.818621 126.700000 0.000000 0 # CG3C52 CG2R53 OG2D1 
	 14 2.515077 109.500000 0.483936 2.561 # CG3C52 CG3C52 CG3C52 
	 15 1.517719 111.400000 0.976977 2.179 # CG3C52 CG3C52 HRA2 
	 16 3.902706 104.500000 0.000000 0 # CG3C52 CG3C52 NG2R53 
	 17 1.539401 109.000000 0.234162 1.802 # HGA2 CG321 HGA2 
	 18 2.273109 107.167000 0.000000 0 # HGA2 CG321 NG2R53 
	 19 1.539401 108.400000 0.234162 1.802 # HGA3 CG331 HGA3 
	 20 1.669491 106.800000 0.234162 1.802 # HRA2 CG3C52 HRA2 
	 21 2.558441 111.000000 0.000000 0 # HRA2 CG3C52 NG2R53 
	 22 2.818621 127.800000 0.000000 0 # NG2R53 CG2R53 OG2D1 
    23  1.14916  110.10000    0.97700    2.17900  # CC32A    CC32A    HCA2 
    24  3.28269  110.10000    0.00000    0.00000  # CC32A    CC32A    OC311
	25  2.16822  106.00000    0.00000    0.00000  # CC32A    OC311    HCP1 
	26  1.53944  109.00000    0.23417    1.80200  # HCA2 	  CC32A    HCA2     
	27  2.38505  108.89000    0.00000    0.00000  # HCA2     CC32A    OC311    

Dihedral Coeffs


	 1 0.014744 3 180 0 # CG2R53 CG3C52 CG3C52 CG3C52 
	 2 0.000000 3 0 1 # CG2R53 CG3C52 CG3C52 HRA2 
	 3 0.043493 1 0 1 # CG2R53 NG2R53 CG321 CG321 
	 4 0.051082 1 0 1 # CG2R53 NG2R53 CG321 HGA2 
	 5 0.100169 3 180 0 # CG2R53 NG2R53 CG3C52 CG3C52 
	 6 0.000000 3 0 1 # CG2R53 NG2R53 CG3C52 HRA2 
	 7 0.002797 2 0 1 # CG321 CG321 CG321 CG321 
	 8 0.006494 3 180 0 # CG321 CG321 CG321 CG321 
	 9 0.004101 4 0 0 # CG321 CG321 CG321 CG321 
	 10 0.004879 5 0 0 # CG321 CG321 CG321 CG321 
	 11 0.006527 2 0 1 # CG321 CG321 CG321 CG331 
	 12 0.003527 3 180 0 # CG321 CG321 CG321 CG331 
	 13 0.004694 4 0 0 # CG321 CG321 CG321 CG331 
	 14 0.008842 5 0 0 # CG321 CG321 CG321 CG331 
	 15 0.008456 3 0 1 # CG321 CG321 CG321 HGA2 
	 16 0.029964 1 180 1 # CG321 CG321 CG321 NG2R53 
	 17 0.006938 3 0 1 # CG321 CG321 CG331 HGA3 
	 18 0.014093 1 0 1 # CG321 CG321 NG2R53 CG3C52 
	 19 0.045748 3 0 0 # CG321 CG321 NG2R53 CG3C52 
	 20 0.130090 1 0 1 # CG321 NG2R53 CG2R53 CG3C52 
	 21 0.130090 1 180 1 # CG321 NG2R53 CG2R53 OG2D1 
	 22 0.130090 1 0 1 # CG321 NG2R53 CG3C52 CG3C52 
	 23 0.130090 1 180 1 # CG321 NG2R53 CG3C52 HRA2 
	 24 0.007805 3 0 1 # CG331 CG321 CG321 HGA2 
	 25 0.017345 2 180 0 # CG3C52 CG2R53 NG2R53 CG3C52 
	 26 0.045532 3 180 0 # CG3C52 CG3C52 CG2R53 NG2R53 
	 27 0.003469 3 0 1 # CG3C52 CG3C52 CG2R53 OG2D1 
	 28 0.008239 3 0 1 # CG3C52 CG3C52 CG3C52 HRA2 
	 29 0.092364 3 0 0 # CG3C52 CG3C52 CG3C52 NG2R53 
	 30 0.112311 2 180 1 # CG3C52 NG2R53 CG2R53 OG2D1 
	 31 0.007545 1 0 1 # CG3C52 NG2R53 CG321 HGA2 
	 32 0.009540 3 0 1 # HGA2 CG321 CG321 HGA2 
	 33 0.013226 1 180 1 # HGA2 CG321 CG321 NG2R53 
	 34 0.006938 3 0 1 # HGA2 CG321 CG331 HGA3 
	 35 0.000000 3 180 1 # HRA2 CG3C52 CG2R53 NG2R53 
	 36 0.000000 3 0 1 # HRA2 CG3C52 CG2R53 OG2D1 
	 37 0.008239 3 0 1 # HRA2 CG3C52 CG3C52 HRA2 
	 38 0.000000 3 180 1 # HRA2 CG3C52 CG3C52 NG2R53 
    39  0.01735          1        180      1.000  # CC32A    CC32A    OC311    HCP1 
    40  0.00043          2          0      0.000  # CC32A    CC32A    OC311    HCP1 
	41  0.01127          3          0      0.000  # CC32A    CC32A    OC311    HCP1 
	42  0.00824          3          0      1.000  # HCA2     CC32A    CC32A    HCA2         
	43  0.00607          3          0      1.000  # HCA2     CC32A    CC32A    OC311        
	44  0.00781          3          0      1.000  # HCA2     CC32A    OC311    HCP1     
    45  0.01431          1          0      1.000  # OC311    CC32A    CC32A    OC311
	46  0.09410          2          0      0.000  # OC311    CC32A    CC32A    OC311
	47  0.01951          3          0      0.000  # OC311    CC32A    CC32A    OC311

Improper Coeffs


	 1 3.902706 0 # CG2R53 CG3C52 NG2R53 OG2D1 

Atoms # full

1 1 7 -0.101 0.767 -0.583 16.784 # CG3C52 
2 1 7 -0.09 0.178 -0.209 18.152 # CG3C52 
3 1 8 -0.055 1.367 -0.12 18.985 # NG2R53 
4 1 4 -0.023 2.51 0.144 18.272 # CG2R53 
5 1 7 -0.099 2.138 0.096 16.796 # CG3C52 
6 1 2 0.09 0.605 -0.658 20.84 # HGA2 
7 1 5 -0.053 1.322 0.06 20.424 # CG321 
8 1 1 0.09 -0.361 0.749 18.111 # HRA2 
9 1 1 0.09 -0.509 -0.967 18.544 # HRA2 
10 1 1 0.09 0.888 -1.669 16.727 # HRA2 
11 1 1 0.09 0.127 -0.267 15.956 # HRA2 
12 1 2 0.09 2.318 -0.195 20.799 # HGA2 
13 1 9 -0.315 3.612 0.394 18.759 # OG2D1 
14 1 1 0.09 2.909 -0.42 16.22 # HRA2 
15 1 1 0.09 2.084 1.128 16.428 # HRA2 
16 1 5 -0.149 0.962 1.486 20.837 # CG321 
17 1 5 -0.211 0.924 1.656 22.354 # CG321 
18 1 2 0.09 1.706 2.165 20.404 # HGA2 
19 1 2 0.09 -0.013 1.76 20.412 # HGA2 
20 1 2 0.09 0.189 0.961 22.782 # HGA2 
21 1 2 0.09 1.899 1.374 22.773 # HGA2 
22 1 5 -0.251 0.582 3.08 22.786 # CG321 
23 1 5 -0.096 0.548 3.256 24.303 # CG321 
24 1 2 0.09 1.318 3.774 22.357 # HGA2 
25 1 2 0.09 -0.392 3.364 22.366 # HGA2 
26 1 2 0.09 -0.186 2.56 24.732 # HGA2 
27 1 2 0.09 1.523 2.972 24.722 # HGA2 
28 1 5 -0.137 0.207 4.68 24.736 # CG321 
29 1 5 -0.28 0.174 4.857 26.252 # CG321 
30 1 2 0.09 0.942 5.375 24.306 # HGA2 
31 1 2 0.09 -0.767 4.964 24.316 # HGA2 
32 1 2 0.09 -0.56 4.162 26.682 # HGA2 
33 1 2 0.09 1.149 4.573 26.672 # HGA2 
34 1 5 -0.189 -0.166 6.281 26.686 # CG321 
35 1 5 -0.183 -0.2 6.458 28.202 # CG321 
36 1 2 0.09 0.569 6.976 26.256 # HGA2 
37 1 2 0.09 -1.14 6.565 26.266 # HGA2 
38 1 2 0.09 -0.935 5.763 28.632 # HGA2 
39 1 2 0.09 0.775 6.173 28.622 # HGA2 
40 1 5 -0.201 -0.539 7.882 28.636 # CG321 
41 1 5 -0.104 -0.573 8.061 30.152 # CG321 
42 1 2 0.09 0.196 8.577 28.206 # HGA2 
43 1 2 0.09 -1.513 8.167 28.216 # HGA2 
44 1 2 0.09 -1.307 7.366 30.579 # HGA2 
45 1 2 0.09 0.401 7.775 30.569 # HGA2 
46 1 6 -0.253 -0.913 9.488 30.572 # CG331 
47 1 3 0.09 -0.931 9.592 31.661 # HGA3 
48 1 3 0.09 -0.175 10.196 30.18 # HGA3 
49 1 3 0.09 -1.895 9.783 30.19 # HGA3 
50 2 7 -0.101 0.767 9.417 16.784 # CG3C52 
51 2 7 -0.09 0.178 9.791 18.152 # CG3C52 
52 2 8 -0.055 1.367 9.88 18.985 # NG2R53 
53 2 4 -0.023 2.51 10.144 18.272 # CG2R53 
54 2 7 -0.099 2.138 10.096 16.796 # CG3C52 
55 2 2 0.09 0.605 9.342 20.84 # HGA2 
56 2 5 -0.053 1.322 10.06 20.424 # CG321 
57 2 1 0.09 -0.361 10.749 18.111 # HRA2 
58 2 1 0.09 -0.509 9.033 18.544 # HRA2 
59 2 1 0.09 0.888 8.331 16.727 # HRA2 
60 2 1 0.09 0.127 9.733 15.956 # HRA2 
61 2 2 0.09 2.318 9.805 20.799 # HGA2 
62 2 9 -0.315 3.612 10.394 18.759 # OG2D1 
63 2 1 0.09 2.909 9.58 16.22 # HRA2 
64 2 1 0.09 2.084 11.128 16.428 # HRA2 
65 2 5 -0.149 0.962 11.486 20.837 # CG321 
66 2 5 -0.211 0.924 11.656 22.354 # CG321 
67 2 2 0.09 1.706 12.165 20.404 # HGA2 
68 2 2 0.09 -0.013 11.76 20.412 # HGA2 
69 2 2 0.09 0.189 10.961 22.782 # HGA2 
70 2 2 0.09 1.899 11.374 22.773 # HGA2 
71 2 5 -0.251 0.582 13.08 22.786 # CG321 
72 2 5 -0.096 0.548 13.256 24.303 # CG321 
73 2 2 0.09 1.318 13.774 22.357 # HGA2 
74 2 2 0.09 -0.392 13.364 22.366 # HGA2 
75 2 2 0.09 -0.186 12.56 24.732 # HGA2 
76 2 2 0.09 1.523 12.972 24.722 # HGA2 
77 2 5 -0.137 0.207 14.68 24.736 # CG321 
78 2 5 -0.28 0.174 14.857 26.252 # CG321 
79 2 2 0.09 0.942 15.375 24.306 # HGA2 
80 2 2 0.09 -0.767 14.964 24.316 # HGA2 
81 2 2 0.09 -0.56 14.162 26.682 # HGA2 
82 2 2 0.09 1.149 14.573 26.672 # HGA2 
83 2 5 -0.189 -0.166 16.281 26.686 # CG321 
84 2 5 -0.183 -0.2 16.458 28.202 # CG321 
85 2 2 0.09 0.569 16.976 26.256 # HGA2 
86 2 2 0.09 -1.14 16.565 26.266 # HGA2 
87 2 2 0.09 -0.935 15.763 28.632 # HGA2 
88 2 2 0.09 0.775 16.173 28.622 # HGA2 
89 2 5 -0.201 -0.539 17.882 28.636 # CG321 
90 2 5 -0.104 -0.573 18.061 30.152 # CG321 
91 2 2 0.09 0.196 18.577 28.206 # HGA2 
92 2 2 0.09 -1.513 18.167 28.216 # HGA2 
93 2 2 0.09 -1.307 17.366 30.579 # HGA2 
94 2 2 0.09 0.401 17.775 30.569 # HGA2 
95 2 6 -0.253 -0.913 19.488 30.572 # CG331 
96 2 3 0.09 -0.931 19.592 31.661 # HGA3 
97 2 3 0.09 -0.175 20.196 30.18 # HGA3 
98 2 3 0.09 -1.895 19.783 30.19 # HGA3 
99 3 7 -0.101 0.767 19.417 16.784 # CG3C52 
100 3 7 -0.09 0.178 19.791 18.152 # CG3C52 
101 3 8 -0.055 1.367 19.88 18.985 # NG2R53 
102 3 4 -0.023 2.51 20.144 18.272 # CG2R53 
103 3 7 -0.099 2.138 20.096 16.796 # CG3C52 
104 3 2 0.09 0.605 19.342 20.84 # HGA2 
105 3 5 -0.053 1.322 20.06 20.424 # CG321 
106 3 1 0.09 -0.361 20.749 18.111 # HRA2 
107 3 1 0.09 -0.509 19.033 18.544 # HRA2 
108 3 1 0.09 0.888 18.331 16.727 # HRA2 
109 3 1 0.09 0.127 19.733 15.956 # HRA2 
110 3 2 0.09 2.318 19.805 20.799 # HGA2 
111 3 9 -0.315 3.612 20.394 18.759 # OG2D1 
112 3 1 0.09 2.909 19.58 16.22 # HRA2 
113 3 1 0.09 2.084 21.128 16.428 # HRA2 
114 3 5 -0.149 0.962 21.486 20.837 # CG321 
115 3 5 -0.211 0.924 21.656 22.354 # CG321 
116 3 2 0.09 1.706 22.165 20.404 # HGA2 
117 3 2 0.09 -0.013 21.76 20.412 # HGA2 
118 3 2 0.09 0.189 20.961 22.782 # HGA2 
119 3 2 0.09 1.899 21.374 22.773 # HGA2 
120 3 5 -0.251 0.582 23.08 22.786 # CG321 
121 3 5 -0.096 0.548 23.256 24.303 # CG321 
122 3 2 0.09 1.318 23.774 22.357 # HGA2 
123 3 2 0.09 -0.392 23.364 22.366 # HGA2 
124 3 2 0.09 -0.186 22.56 24.732 # HGA2 
125 3 2 0.09 1.523 22.972 24.722 # HGA2 
126 3 5 -0.137 0.207 24.68 24.736 # CG321 
127 3 5 -0.28 0.174 24.857 26.252 # CG321 
128 3 2 0.09 0.942 25.375 24.306 # HGA2 
129 3 2 0.09 -0.767 24.964 24.316 # HGA2 
130 3 2 0.09 -0.56 24.162 26.682 # HGA2 
131 3 2 0.09 1.149 24.573 26.672 # HGA2 
132 3 5 -0.189 -0.166 26.281 26.686 # CG321 
133 3 5 -0.183 -0.2 26.458 28.202 # CG321 
134 3 2 0.09 0.569 26.976 26.256 # HGA2 
135 3 2 0.09 -1.14 26.565 26.266 # HGA2 
136 3 2 0.09 -0.935 25.763 28.632 # HGA2 
137 3 2 0.09 0.775 26.173 28.622 # HGA2 
138 3 5 -0.201 -0.539 27.882 28.636 # CG321 
139 3 5 -0.104 -0.573 28.061 30.152 # CG321 
140 3 2 0.09 0.196 28.577 28.206 # HGA2 
141 3 2 0.09 -1.513 28.167 28.216 # HGA2 
142 3 2 0.09 -1.307 27.366 30.579 # HGA2 
143 3 2 0.09 0.401 27.775 30.569 # HGA2 
144 3 6 -0.253 -0.913 29.488 30.572 # CG331 
145 3 3 0.09 -0.931 29.592 31.661 # HGA3 
146 3 3 0.09 -0.175 30.196 30.18 # HGA3 
147 3 3 0.09 -1.895 29.783 30.19 # HGA3 
148 4 7 -0.101 10.767 -0.583 16.784 # CG3C52 
149 4 7 -0.09 10.178 -0.209 18.152 # CG3C52 
150 4 8 -0.055 11.367 -0.12 18.985 # NG2R53 
151 4 4 -0.023 12.51 0.144 18.272 # CG2R53 
152 4 7 -0.099 12.138 0.096 16.796 # CG3C52 
153 4 2 0.09 10.605 -0.658 20.84 # HGA2 
154 4 5 -0.053 11.322 0.06 20.424 # CG321 
155 4 1 0.09 9.639 0.749 18.111 # HRA2 
156 4 1 0.09 9.491 -0.967 18.544 # HRA2 
157 4 1 0.09 10.888 -1.669 16.727 # HRA2 
158 4 1 0.09 10.127 -0.267 15.956 # HRA2 
159 4 2 0.09 12.318 -0.195 20.799 # HGA2 
160 4 9 -0.315 13.612 0.394 18.759 # OG2D1 
161 4 1 0.09 12.909 -0.42 16.22 # HRA2 
162 4 1 0.09 12.084 1.128 16.428 # HRA2 
163 4 5 -0.149 10.962 1.486 20.837 # CG321 
164 4 5 -0.211 10.924 1.656 22.354 # CG321 
165 4 2 0.09 11.706 2.165 20.404 # HGA2 
166 4 2 0.09 9.987 1.76 20.412 # HGA2 
167 4 2 0.09 10.189 0.961 22.782 # HGA2 
168 4 2 0.09 11.899 1.374 22.773 # HGA2 
169 4 5 -0.251 10.582 3.08 22.786 # CG321 
170 4 5 -0.096 10.548 3.256 24.303 # CG321 
171 4 2 0.09 11.318 3.774 22.357 # HGA2 
172 4 2 0.09 9.608 3.364 22.366 # HGA2 
173 4 2 0.09 9.814 2.56 24.732 # HGA2 
174 4 2 0.09 11.523 2.972 24.722 # HGA2 
175 4 5 -0.137 10.207 4.68 24.736 # CG321 
176 4 5 -0.28 10.174 4.857 26.252 # CG321 
177 4 2 0.09 10.942 5.375 24.306 # HGA2 
178 4 2 0.09 9.233 4.964 24.316 # HGA2 
179 4 2 0.09 9.44 4.162 26.682 # HGA2 
180 4 2 0.09 11.149 4.573 26.672 # HGA2 
181 4 5 -0.189 9.834 6.281 26.686 # CG321 
182 4 5 -0.183 9.8 6.458 28.202 # CG321 
183 4 2 0.09 10.569 6.976 26.256 # HGA2 
184 4 2 0.09 8.86 6.565 26.266 # HGA2 
185 4 2 0.09 9.065 5.763 28.632 # HGA2 
186 4 2 0.09 10.775 6.173 28.622 # HGA2 
187 4 5 -0.201 9.461 7.882 28.636 # CG321 
188 4 5 -0.104 9.427 8.061 30.152 # CG321 
189 4 2 0.09 10.196 8.577 28.206 # HGA2 
190 4 2 0.09 8.487 8.167 28.216 # HGA2 
191 4 2 0.09 8.693 7.366 30.579 # HGA2 
192 4 2 0.09 10.401 7.775 30.569 # HGA2 
193 4 6 -0.253 9.087 9.488 30.572 # CG331 
194 4 3 0.09 9.069 9.592 31.661 # HGA3 
195 4 3 0.09 9.825 10.196 30.18 # HGA3 
196 4 3 0.09 8.105 9.783 30.19 # HGA3 
197 5 7 -0.101 10.767 9.417 16.784 # CG3C52 
198 5 7 -0.09 10.178 9.791 18.152 # CG3C52 
199 5 8 -0.055 11.367 9.88 18.985 # NG2R53 
200 5 4 -0.023 12.51 10.144 18.272 # CG2R53 
201 5 7 -0.099 12.138 10.096 16.796 # CG3C52 
202 5 2 0.09 10.605 9.342 20.84 # HGA2 
203 5 5 -0.053 11.322 10.06 20.424 # CG321 
204 5 1 0.09 9.639 10.749 18.111 # HRA2 
205 5 1 0.09 9.491 9.033 18.544 # HRA2 
206 5 1 0.09 10.888 8.331 16.727 # HRA2 
207 5 1 0.09 10.127 9.733 15.956 # HRA2 
208 5 2 0.09 12.318 9.805 20.799 # HGA2 
209 5 9 -0.315 13.612 10.394 18.759 # OG2D1 
210 5 1 0.09 12.909 9.58 16.22 # HRA2 
211 5 1 0.09 12.084 11.128 16.428 # HRA2 
212 5 5 -0.149 10.962 11.486 20.837 # CG321 
213 5 5 -0.211 10.924 11.656 22.354 # CG321 
214 5 2 0.09 11.706 12.165 20.404 # HGA2 
215 5 2 0.09 9.987 11.76 20.412 # HGA2 
216 5 2 0.09 10.189 10.961 22.782 # HGA2 
217 5 2 0.09 11.899 11.374 22.773 # HGA2 
218 5 5 -0.251 10.582 13.08 22.786 # CG321 
219 5 5 -0.096 10.548 13.256 24.303 # CG321 
220 5 2 0.09 11.318 13.774 22.357 # HGA2 
221 5 2 0.09 9.608 13.364 22.366 # HGA2 
222 5 2 0.09 9.814 12.56 24.732 # HGA2 
223 5 2 0.09 11.523 12.972 24.722 # HGA2 
224 5 5 -0.137 10.207 14.68 24.736 # CG321 
225 5 5 -0.28 10.174 14.857 26.252 # CG321 
226 5 2 0.09 10.942 15.375 24.306 # HGA2 
227 5 2 0.09 9.233 14.964 24.316 # HGA2 
228 5 2 0.09 9.44 14.162 26.682 # HGA2 
229 5 2 0.09 11.149 14.573 26.672 # HGA2 
230 5 5 -0.189 9.834 16.281 26.686 # CG321 
231 5 5 -0.183 9.8 16.458 28.202 # CG321 
232 5 2 0.09 10.569 16.976 26.256 # HGA2 
233 5 2 0.09 8.86 16.565 26.266 # HGA2 
234 5 2 0.09 9.065 15.763 28.632 # HGA2 
235 5 2 0.09 10.775 16.173 28.622 # HGA2 
236 5 5 -0.201 9.461 17.882 28.636 # CG321 
237 5 5 -0.104 9.427 18.061 30.152 # CG321 
238 5 2 0.09 10.196 18.577 28.206 # HGA2 
239 5 2 0.09 8.487 18.167 28.216 # HGA2 
240 5 2 0.09 8.693 17.366 30.579 # HGA2 
241 5 2 0.09 10.401 17.775 30.569 # HGA2 
242 5 6 -0.253 9.087 19.488 30.572 # CG331 
243 5 3 0.09 9.069 19.592 31.661 # HGA3 
244 5 3 0.09 9.825 20.196 30.18 # HGA3 
245 5 3 0.09 8.105 19.783 30.19 # HGA3 
246 6 7 -0.101 10.767 19.417 16.784 # CG3C52 
247 6 7 -0.09 10.178 19.791 18.152 # CG3C52 
248 6 8 -0.055 11.367 19.88 18.985 # NG2R53 
249 6 4 -0.023 12.51 20.144 18.272 # CG2R53 
250 6 7 -0.099 12.138 20.096 16.796 # CG3C52 
251 6 2 0.09 10.605 19.342 20.84 # HGA2 
252 6 5 -0.053 11.322 20.06 20.424 # CG321 
253 6 1 0.09 9.639 20.749 18.111 # HRA2 
254 6 1 0.09 9.491 19.033 18.544 # HRA2 
255 6 1 0.09 10.888 18.331 16.727 # HRA2 
256 6 1 0.09 10.127 19.733 15.956 # HRA2 
257 6 2 0.09 12.318 19.805 20.799 # HGA2 
258 6 9 -0.315 13.612 20.394 18.759 # OG2D1 
259 6 1 0.09 12.909 19.58 16.22 # HRA2 
260 6 1 0.09 12.084 21.128 16.428 # HRA2 
261 6 5 -0.149 10.962 21.486 20.837 # CG321 
262 6 5 -0.211 10.924 21.656 22.354 # CG321 
263 6 2 0.09 11.706 22.165 20.404 # HGA2 
264 6 2 0.09 9.987 21.76 20.412 # HGA2 
265 6 2 0.09 10.189 20.961 22.782 # HGA2 
266 6 2 0.09 11.899 21.374 22.773 # HGA2 
267 6 5 -0.251 10.582 23.08 22.786 # CG321 
268 6 5 -0.096 10.548 23.256 24.303 # CG321 
269 6 2 0.09 11.318 23.774 22.357 # HGA2 
270 6 2 0.09 9.608 23.364 22.366 # HGA2 
271 6 2 0.09 9.814 22.56 24.732 # HGA2 
272 6 2 0.09 11.523 22.972 24.722 # HGA2 
273 6 5 -0.137 10.207 24.68 24.736 # CG321 
274 6 5 -0.28 10.174 24.857 26.252 # CG321 
275 6 2 0.09 10.942 25.375 24.306 # HGA2 
276 6 2 0.09 9.233 24.964 24.316 # HGA2 
277 6 2 0.09 9.44 24.162 26.682 # HGA2 
278 6 2 0.09 11.149 24.573 26.672 # HGA2 
279 6 5 -0.189 9.834 26.281 26.686 # CG321 
280 6 5 -0.183 9.8 26.458 28.202 # CG321 
281 6 2 0.09 10.569 26.976 26.256 # HGA2 
282 6 2 0.09 8.86 26.565 26.266 # HGA2 
283 6 2 0.09 9.065 25.763 28.632 # HGA2 
284 6 2 0.09 10.775 26.173 28.622 # HGA2 
285 6 5 -0.201 9.461 27.882 28.636 # CG321 
286 6 5 -0.104 9.427 28.061 30.152 # CG321 
287 6 2 0.09 10.196 28.577 28.206 # HGA2 
288 6 2 0.09 8.487 28.167 28.216 # HGA2 
289 6 2 0.09 8.693 27.366 30.579 # HGA2 
290 6 2 0.09 10.401 27.775 30.569 # HGA2 
291 6 6 -0.253 9.087 29.488 30.572 # CG331 
292 6 3 0.09 9.069 29.592 31.661 # HGA3 
293 6 3 0.09 9.825 30.196 30.18 # HGA3 
294 6 3 0.09 8.105 29.783 30.19 # HGA3 
295 7 7 -0.101 20.767 -0.583 16.784 # CG3C52 
296 7 7 -0.09 20.178 -0.209 18.152 # CG3C52 
297 7 8 -0.055 21.367 -0.12 18.985 # NG2R53 
298 7 4 -0.023 22.51 0.144 18.272 # CG2R53 
299 7 7 -0.099 22.138 0.096 16.796 # CG3C52 
300 7 2 0.09 20.605 -0.658 20.84 # HGA2 
301 7 5 -0.053 21.322 0.06 20.424 # CG321 
302 7 1 0.09 19.639 0.749 18.111 # HRA2 
303 7 1 0.09 19.491 -0.967 18.544 # HRA2 
304 7 1 0.09 20.888 -1.669 16.727 # HRA2 
305 7 1 0.09 20.127 -0.267 15.956 # HRA2 
306 7 2 0.09 22.318 -0.195 20.799 # HGA2 
307 7 9 -0.315 23.612 0.394 18.759 # OG2D1 
308 7 1 0.09 22.909 -0.42 16.22 # HRA2 
309 7 1 0.09 22.084 1.128 16.428 # HRA2 
310 7 5 -0.149 20.962 1.486 20.837 # CG321 
311 7 5 -0.211 20.924 1.656 22.354 # CG321 
312 7 2 0.09 21.706 2.165 20.404 # HGA2 
313 7 2 0.09 19.987 1.76 20.412 # HGA2 
314 7 2 0.09 20.189 0.961 22.782 # HGA2 
315 7 2 0.09 21.899 1.374 22.773 # HGA2 
316 7 5 -0.251 20.582 3.08 22.786 # CG321 
317 7 5 -0.096 20.548 3.256 24.303 # CG321 
318 7 2 0.09 21.318 3.774 22.357 # HGA2 
319 7 2 0.09 19.608 3.364 22.366 # HGA2 
320 7 2 0.09 19.814 2.56 24.732 # HGA2 
321 7 2 0.09 21.523 2.972 24.722 # HGA2 
322 7 5 -0.137 20.207 4.68 24.736 # CG321 
323 7 5 -0.28 20.174 4.857 26.252 # CG321 
324 7 2 0.09 20.942 5.375 24.306 # HGA2 
325 7 2 0.09 19.233 4.964 24.316 # HGA2 
326 7 2 0.09 19.44 4.162 26.682 # HGA2 
327 7 2 0.09 21.149 4.573 26.672 # HGA2 
328 7 5 -0.189 19.834 6.281 26.686 # CG321 
329 7 5 -0.183 19.8 6.458 28.202 # CG321 
330 7 2 0.09 20.569 6.976 26.256 # HGA2 
331 7 2 0.09 18.86 6.565 26.266 # HGA2 
332 7 2 0.09 19.065 5.763 28.632 # HGA2 
333 7 2 0.09 20.775 6.173 28.622 # HGA2 
334 7 5 -0.201 19.461 7.882 28.636 # CG321 
335 7 5 -0.104 19.427 8.061 30.152 # CG321 
336 7 2 0.09 20.196 8.577 28.206 # HGA2 
337 7 2 0.09 18.487 8.167 28.216 # HGA2 
338 7 2 0.09 18.693 7.366 30.579 # HGA2 
339 7 2 0.09 20.401 7.775 30.569 # HGA2 
340 7 6 -0.253 19.087 9.488 30.572 # CG331 
341 7 3 0.09 19.069 9.592 31.661 # HGA3 
342 7 3 0.09 19.825 10.196 30.18 # HGA3 
343 7 3 0.09 18.105 9.783 30.19 # HGA3 
344 8 7 -0.101 20.767 9.417 16.784 # CG3C52 
345 8 7 -0.09 20.178 9.791 18.152 # CG3C52 
346 8 8 -0.055 21.367 9.88 18.985 # NG2R53 
347 8 4 -0.023 22.51 10.144 18.272 # CG2R53 
348 8 7 -0.099 22.138 10.096 16.796 # CG3C52 
349 8 2 0.09 20.605 9.342 20.84 # HGA2 
350 8 5 -0.053 21.322 10.06 20.424 # CG321 
351 8 1 0.09 19.639 10.749 18.111 # HRA2 
352 8 1 0.09 19.491 9.033 18.544 # HRA2 
353 8 1 0.09 20.888 8.331 16.727 # HRA2 
354 8 1 0.09 20.127 9.733 15.956 # HRA2 
355 8 2 0.09 22.318 9.805 20.799 # HGA2 
356 8 9 -0.315 23.612 10.394 18.759 # OG2D1 
357 8 1 0.09 22.909 9.58 16.22 # HRA2 
358 8 1 0.09 22.084 11.128 16.428 # HRA2 
359 8 5 -0.149 20.962 11.486 20.837 # CG321 
360 8 5 -0.211 20.924 11.656 22.354 # CG321 
361 8 2 0.09 21.706 12.165 20.404 # HGA2 
362 8 2 0.09 19.987 11.76 20.412 # HGA2 
363 8 2 0.09 20.189 10.961 22.782 # HGA2 
364 8 2 0.09 21.899 11.374 22.773 # HGA2 
365 8 5 -0.251 20.582 13.08 22.786 # CG321 
366 8 5 -0.096 20.548 13.256 24.303 # CG321 
367 8 2 0.09 21.318 13.774 22.357 # HGA2 
368 8 2 0.09 19.608 13.364 22.366 # HGA2 
369 8 2 0.09 19.814 12.56 24.732 # HGA2 
370 8 2 0.09 21.523 12.972 24.722 # HGA2 
371 8 5 -0.137 20.207 14.68 24.736 # CG321 
372 8 5 -0.28 20.174 14.857 26.252 # CG321 
373 8 2 0.09 20.942 15.375 24.306 # HGA2 
374 8 2 0.09 19.233 14.964 24.316 # HGA2 
375 8 2 0.09 19.44 14.162 26.682 # HGA2 
376 8 2 0.09 21.149 14.573 26.672 # HGA2 
377 8 5 -0.189 19.834 16.281 26.686 # CG321 
378 8 5 -0.183 19.8 16.458 28.202 # CG321 
379 8 2 0.09 20.569 16.976 26.256 # HGA2 
380 8 2 0.09 18.86 16.565 26.266 # HGA2 
381 8 2 0.09 19.065 15.763 28.632 # HGA2 
382 8 2 0.09 20.775 16.173 28.622 # HGA2 
383 8 5 -0.201 19.461 17.882 28.636 # CG321 
384 8 5 -0.104 19.427 18.061 30.152 # CG321 
385 8 2 0.09 20.196 18.577 28.206 # HGA2 
386 8 2 0.09 18.487 18.167 28.216 # HGA2 
387 8 2 0.09 18.693 17.366 30.579 # HGA2 
388 8 2 0.09 20.401 17.775 30.569 # HGA2 
389 8 6 -0.253 19.087 19.488 30.572 # CG331 
390 8 3 0.09 19.069 19.592 31.661 # HGA3 
391 8 3 0.09 19.825 20.196 30.18 # HGA3 
392 8 3 0.09 18.105 19.783 30.19 # HGA3 
393 9 7 -0.101 20.767 19.417 16.784 # CG3C52 
394 9 7 -0.09 20.178 19.791 18.152 # CG3C52 
395 9 8 -0.055 21.367 19.88 18.985 # NG2R53 
396 9 4 -0.023 22.51 20.144 18.272 # CG2R53 
397 9 7 -0.099 22.138 20.096 16.796 # CG3C52 
398 9 2 0.09 20.605 19.342 20.84 # HGA2 
399 9 5 -0.053 21.322 20.06 20.424 # CG321 
400 9 1 0.09 19.639 20.749 18.111 # HRA2 
401 9 1 0.09 19.491 19.033 18.544 # HRA2 
402 9 1 0.09 20.888 18.331 16.727 # HRA2 
403 9 1 0.09 20.127 19.733 15.956 # HRA2 
404 9 2 0.09 22.318 19.805 20.799 # HGA2 
405 9 9 -0.315 23.612 20.394 18.759 # OG2D1 
406 9 1 0.09 22.909 19.58 16.22 # HRA2 
407 9 1 0.09 22.084 21.128 16.428 # HRA2 
408 9 5 -0.149 20.962 21.486 20.837 # CG321 
409 9 5 -0.211 20.924 21.656 22.354 # CG321 
410 9 2 0.09 21.706 22.165 20.404 # HGA2 
411 9 2 0.09 19.987 21.76 20.412 # HGA2 
412 9 2 0.09 20.189 20.961 22.782 # HGA2 
413 9 2 0.09 21.899 21.374 22.773 # HGA2 
414 9 5 -0.251 20.582 23.08 22.786 # CG321 
415 9 5 -0.096 20.548 23.256 24.303 # CG321 
416 9 2 0.09 21.318 23.774 22.357 # HGA2 
417 9 2 0.09 19.608 23.364 22.366 # HGA2 
418 9 2 0.09 19.814 22.56 24.732 # HGA2 
419 9 2 0.09 21.523 22.972 24.722 # HGA2 
420 9 5 -0.137 20.207 24.68 24.736 # CG321 
421 9 5 -0.28 20.174 24.857 26.252 # CG321 
422 9 2 0.09 20.942 25.375 24.306 # HGA2 
423 9 2 0.09 19.233 24.964 24.316 # HGA2 
424 9 2 0.09 19.44 24.162 26.682 # HGA2 
425 9 2 0.09 21.149 24.573 26.672 # HGA2 
426 9 5 -0.189 19.834 26.281 26.686 # CG321 
427 9 5 -0.183 19.8 26.458 28.202 # CG321 
428 9 2 0.09 20.569 26.976 26.256 # HGA2 
429 9 2 0.09 18.86 26.565 26.266 # HGA2 
430 9 2 0.09 19.065 25.763 28.632 # HGA2 
431 9 2 0.09 20.775 26.173 28.622 # HGA2 
432 9 5 -0.201 19.461 27.882 28.636 # CG321 
433 9 5 -0.104 19.427 28.061 30.152 # CG321 
434 9 2 0.09 20.196 28.577 28.206 # HGA2 
435 9 2 0.09 18.487 28.167 28.216 # HGA2 
436 9 2 0.09 18.693 27.366 30.579 # HGA2 
437 9 2 0.09 20.401 27.775 30.569 # HGA2 
438 9 6 -0.253 19.087 29.488 30.572 # CG331 
439 9 3 0.09 19.069 29.592 31.661 # HGA3 
440 9 3 0.09 19.825 30.196 30.18 # HGA3 
441 9 3 0.09 18.105 29.783 30.19 # HGA3 
442 10 7 -0.101 0.767 30.583 49.216 # CG3C52 
443 10 7 -0.09 0.178 30.209 47.848 # CG3C52 
444 10 8 -0.055 1.367 30.12 47.015 # NG2R53 
445 10 4 -0.023 2.51 29.856 47.728 # CG2R53 
446 10 7 -0.099 2.138 29.904 49.204 # CG3C52 
447 10 2 0.09 0.605 30.658 45.16 # HGA2 
448 10 5 -0.053 1.322 29.94 45.576 # CG321 
449 10 1 0.09 -0.361 29.251 47.889 # HRA2 
450 10 1 0.09 -0.509 30.967 47.456 # HRA2 
451 10 1 0.09 0.888 31.669 49.273 # HRA2 
452 10 1 0.09 0.127 30.267 50.044 # HRA2 
453 10 2 0.09 2.318 30.195 45.201 # HGA2 
454 10 9 -0.315 3.612 29.606 47.241 # OG2D1 
455 10 1 0.09 2.909 30.42 49.78 # HRA2 
456 10 1 0.09 2.084 28.872 49.572 # HRA2 
457 10 5 -0.149 0.962 28.514 45.163 # CG321 
458 10 5 -0.211 0.924 28.344 43.646 # CG321 
459 10 2 0.09 1.706 27.835 45.596 # HGA2 
460 10 2 0.09 -0.013 28.24 45.588 # HGA2 
461 10 2 0.09 0.189 29.039 43.218 # HGA2 
462 10 2 0.09 1.899 28.626 43.227 # HGA2 
463 10 5 -0.251 0.582 26.92 43.214 # CG321 
464 10 5 -0.096 0.548 26.744 41.697 # CG321 
465 10 2 0.09 1.318 26.226 43.643 # HGA2 
466 10 2 0.09 -0.392 26.636 43.634 # HGA2 
467 10 2 0.09 -0.186 27.44 41.268 # HGA2 
468 10 2 0.09 1.523 27.028 41.278 # HGA2 
469 10 5 -0.137 0.207 25.32 41.264 # CG321 
470 10 5 -0.28 0.174 25.143 39.748 # CG321 
471 10 2 0.09 0.942 24.625 41.694 # HGA2 
472 10 2 0.09 -0.767 25.036 41.684 # HGA2 
473 10 2 0.09 -0.56 25.838 39.318 # HGA2 
474 10 2 0.09 1.149 25.427 39.328 # HGA2 
475 10 5 -0.189 -0.166 23.719 39.314 # CG321 
476 10 5 -0.183 -0.2 23.542 37.798 # CG321 
477 10 2 0.09 0.569 23.024 39.744 # HGA2 
478 10 2 0.09 -1.14 23.435 39.734 # HGA2 
479 10 2 0.09 -0.935 24.237 37.368 # HGA2 
480 10 2 0.09 0.775 23.827 37.378 # HGA2 
481 10 5 -0.201 -0.539 22.118 37.364 # CG321 
482 10 5 -0.104 -0.573 21.939 35.848 # CG321 
483 10 2 0.09 0.196 21.423 37.794 # HGA2 
484 10 2 0.09 -1.513 21.833 37.784 # HGA2 
485 10 2 0.09 -1.307 22.634 35.421 # HGA2 
486 10 2 0.09 0.401 22.225 35.431 # HGA2 
487 10 6 -0.253 -0.913 20.512 35.428 # CG331 
488 10 3 0.09 -0.931 20.408 34.339 # HGA3 
489 10 3 0.09 -0.175 19.804 35.82 # HGA3 
490 10 3 0.09 -1.895 20.217 35.81 # HGA3 
491 11 7 -0.101 0.767 20.583 49.216 # CG3C52 
492 11 7 -0.09 0.178 20.209 47.848 # CG3C52 
493 11 8 -0.055 1.367 20.12 47.015 # NG2R53 
494 11 4 -0.023 2.51 19.856 47.728 # CG2R53 
495 11 7 -0.099 2.138 19.904 49.204 # CG3C52 
496 11 2 0.09 0.605 20.658 45.16 # HGA2 
497 11 5 -0.053 1.322 19.94 45.576 # CG321 
498 11 1 0.09 -0.361 19.251 47.889 # HRA2 
499 11 1 0.09 -0.509 20.967 47.456 # HRA2 
500 11 1 0.09 0.888 21.669 49.273 # HRA2 
501 11 1 0.09 0.127 20.267 50.044 # HRA2 
502 11 2 0.09 2.318 20.195 45.201 # HGA2 
503 11 9 -0.315 3.612 19.606 47.241 # OG2D1 
504 11 1 0.09 2.909 20.42 49.78 # HRA2 
505 11 1 0.09 2.084 18.872 49.572 # HRA2 
506 11 5 -0.149 0.962 18.514 45.163 # CG321 
507 11 5 -0.211 0.924 18.344 43.646 # CG321 
508 11 2 0.09 1.706 17.835 45.596 # HGA2 
509 11 2 0.09 -0.013 18.24 45.588 # HGA2 
510 11 2 0.09 0.189 19.039 43.218 # HGA2 
511 11 2 0.09 1.899 18.626 43.227 # HGA2 
512 11 5 -0.251 0.582 16.92 43.214 # CG321 
513 11 5 -0.096 0.548 16.744 41.697 # CG321 
514 11 2 0.09 1.318 16.226 43.643 # HGA2 
515 11 2 0.09 -0.392 16.636 43.634 # HGA2 
516 11 2 0.09 -0.186 17.44 41.268 # HGA2 
517 11 2 0.09 1.523 17.028 41.278 # HGA2 
518 11 5 -0.137 0.207 15.32 41.264 # CG321 
519 11 5 -0.28 0.174 15.143 39.748 # CG321 
520 11 2 0.09 0.942 14.625 41.694 # HGA2 
521 11 2 0.09 -0.767 15.036 41.684 # HGA2 
522 11 2 0.09 -0.56 15.838 39.318 # HGA2 
523 11 2 0.09 1.149 15.427 39.328 # HGA2 
524 11 5 -0.189 -0.166 13.719 39.314 # CG321 
525 11 5 -0.183 -0.2 13.542 37.798 # CG321 
526 11 2 0.09 0.569 13.024 39.744 # HGA2 
527 11 2 0.09 -1.14 13.435 39.734 # HGA2 
528 11 2 0.09 -0.935 14.237 37.368 # HGA2 
529 11 2 0.09 0.775 13.827 37.378 # HGA2 
530 11 5 -0.201 -0.539 12.118 37.364 # CG321 
531 11 5 -0.104 -0.573 11.939 35.848 # CG321 
532 11 2 0.09 0.196 11.423 37.794 # HGA2 
533 11 2 0.09 -1.513 11.833 37.784 # HGA2 
534 11 2 0.09 -1.307 12.634 35.421 # HGA2 
535 11 2 0.09 0.401 12.225 35.431 # HGA2 
536 11 6 -0.253 -0.913 10.512 35.428 # CG331 
537 11 3 0.09 -0.931 10.408 34.339 # HGA3 
538 11 3 0.09 -0.175 9.804 35.82 # HGA3 
539 11 3 0.09 -1.895 10.217 35.81 # HGA3 
540 12 7 -0.101 0.767 10.583 49.216 # CG3C52 
541 12 7 -0.09 0.178 10.209 47.848 # CG3C52 
542 12 8 -0.055 1.367 10.12 47.015 # NG2R53 
543 12 4 -0.023 2.51 9.856 47.728 # CG2R53 
544 12 7 -0.099 2.138 9.904 49.204 # CG3C52 
545 12 2 0.09 0.605 10.658 45.16 # HGA2 
546 12 5 -0.053 1.322 9.94 45.576 # CG321 
547 12 1 0.09 -0.361 9.251 47.889 # HRA2 
548 12 1 0.09 -0.509 10.967 47.456 # HRA2 
549 12 1 0.09 0.888 11.669 49.273 # HRA2 
550 12 1 0.09 0.127 10.267 50.044 # HRA2 
551 12 2 0.09 2.318 10.195 45.201 # HGA2 
552 12 9 -0.315 3.612 9.606 47.241 # OG2D1 
553 12 1 0.09 2.909 10.42 49.78 # HRA2 
554 12 1 0.09 2.084 8.872 49.572 # HRA2 
555 12 5 -0.149 0.962 8.514 45.163 # CG321 
556 12 5 -0.211 0.924 8.344 43.646 # CG321 
557 12 2 0.09 1.706 7.835 45.596 # HGA2 
558 12 2 0.09 -0.013 8.24 45.588 # HGA2 
559 12 2 0.09 0.189 9.039 43.218 # HGA2 
560 12 2 0.09 1.899 8.626 43.227 # HGA2 
561 12 5 -0.251 0.582 6.92 43.214 # CG321 
562 12 5 -0.096 0.548 6.744 41.697 # CG321 
563 12 2 0.09 1.318 6.226 43.643 # HGA2 
564 12 2 0.09 -0.392 6.636 43.634 # HGA2 
565 12 2 0.09 -0.186 7.44 41.268 # HGA2 
566 12 2 0.09 1.523 7.028 41.278 # HGA2 
567 12 5 -0.137 0.207 5.32 41.264 # CG321 
568 12 5 -0.28 0.174 5.143 39.748 # CG321 
569 12 2 0.09 0.942 4.625 41.694 # HGA2 
570 12 2 0.09 -0.767 5.036 41.684 # HGA2 
571 12 2 0.09 -0.56 5.838 39.318 # HGA2 
572 12 2 0.09 1.149 5.427 39.328 # HGA2 
573 12 5 -0.189 -0.166 3.719 39.314 # CG321 
574 12 5 -0.183 -0.2 3.542 37.798 # CG321 
575 12 2 0.09 0.569 3.024 39.744 # HGA2 
576 12 2 0.09 -1.14 3.435 39.734 # HGA2 
577 12 2 0.09 -0.935 4.237 37.368 # HGA2 
578 12 2 0.09 0.775 3.827 37.378 # HGA2 