LAMMPS Description

     4203  atoms
     3173  bonds
     5192  angles
     6095  dihedrals
     35  impropers

     25  atom types
     26  bond types
     50  angle types
     68  dihedral types
     2  improper types

  0.0 33.0112 xlo xhi
  0.0 33.0112 ylo yhi
  0.0 58.00 zlo zhi

Masses

1   1.008    # HRA2
2   1.008    # HGA2
3   1.008    # HGA3
4   12.011   # CG2R53
5   12.011   # CG321
6   12.011   # CG331
7   12.011   # CG3C52
8   14.007   # NG2R53
9   15.9994  # OG2D1
    10 1.008    # HCA2
    11 1.008    # HCP1
	12 12.011   # CC32A
	13 15.9994  # OC311
	14      1.008  # HRA2
	15      1.008  # HGA1
	16      1.008  # HGA2
	17      1.008  # HGA3
	18     12.011  # CG2R53
	19     12.011  # CG311
	20     12.011  # CG321
	21     12.011  # CG331
	22     12.011  # CG3C52
	23    14.007  # NG2R53
	24   15.9994  # OG2D1
    25 107.8682  # Ag

Bond Coeffs

1   13.00902   1.53000   # CG2R53   CG3C52
2   19.94716   1.38000   # CG2R53   NG2R53
3   24.71714   1.23500   # CG2R53   OG2D1
4   9.64836    1.52800   # CG321    CG331
5   13.39929   1.11100   # CG321    HGA2
6   13.87629   1.43000   # CG321    NG2R53
7   13.96301   1.11100   # CG331    HGA3
8   8.45586    1.53000   # CG3C52   CG3C52
9   13.31256   1.10000   # CG3C52   HRA2
10  16.04446   1.45000   # CG3C52   NG2R53
    11   9.64860   1.53000  # CC32A    CC32A
    12  13.39962   1.11100  # CC32A    HCA2 
	13  18.56000   1.42000  # CC32A    OC311
	14  23.63364   0.96000  # HCP1 	OC311    
	15   13.00902   1.530   # CG2R53   CG3C52 
	16   19.94716   1.380   # CG2R53   NG2R53 
	17   24.71714   1.235   # CG2R53   OG2D1  
	18   9.64836    1.538   # CG311    CG321  
	19   9.64836    1.538   # CG311    CG331  
	20   13.39929   1.111   # CG311    HGA1 
	21   13.87629   1.430   # CG311    NG2R53 
	22   13.39929   1.111   # CG321    HGA2 
	23   13.96301   1.111   # CG331    HGA3 
	24  8.45586    1.530   # CG3C52   CG3C52 
	25  13.31256   1.100   # CG3C52   HRA2 
	26  16.04446   1.450   # CG3C52   NG2R53 

Angle Coeffs

1   3.03544  106.5   0.000   0.000  # CG2R53   CG3C52   CG3C52
2   2.51508  111.0   0.000   0.000  # CG2R53   CG3C52   HRA2
3   2.16817  120.0   0.000   0.000  # CG2R53   NG2R53   CG321
4   3.25226  111.0   0.000   0.000  # CG2R53   NG2R53   CG3C52
5   1.50037  110.1   0.977   2.179  # CG321    CG331    HGA3
6   2.16817  116.0   0.000   0.000  # CG321    NG2R53   CG3C52
7   1.50037  110.1   0.977   2.179  # CG331    CG321    HGA2
8   3.03544  113.5   0.000   0.000  # CG331    CG321    NG2R53
9   3.03544  113.5   0.000   0.000  # CG331    CG321    NG2R53
10  5.20361  105.5   0.000   0.000  # CG3C52   CG2R53   NG2R53
11  2.81862  126.7   0.000   0.000  # CG3C52   CG2R53   OG2D1
12  2.51508  109.5   0.484   2.561  # CG3C52   CG3C52   CG3C52
13  1.51772  111.4   0.977   2.179  # CG3C52   CG3C52   HRA2
14  3.90271  104.5   0.000   0.000  # CG3C52   CG3C52   NG2R53
15  1.53940  109.0   0.234   1.802  # HGA2 CG321    HGA2
16  2.08144  108.0   0.000   0.000  # HGA2 CG321    NG2R53
17  1.53940  108.4   0.234   1.802  # HGA3 CG331    HGA3
18  1.66949  106.8   0.234   1.802  # HRA2 CG3C52   HRA2
19  2.55844  111.0   0.000   0.000  # HRA2 CG3C52   NG2R53
20  2.81862  127.8   0.000   0.000  # NG2R53   CG2R53   OG2D1
    21  1.14916  110.10000    0.97700    2.17900  # CC32A    CC32A    HCA2 
    22  3.28269  110.10000    0.00000    0.00000  # CC32A    CC32A    OC311
	23  2.16822  106.00000    0.00000    0.00000  # CC32A    OC311    HCP1 
	24  1.53944  109.00000    0.23417    1.80200  # HCA2 	  CC32A    HCA2     
	25  2.38505  108.89000    0.00000    0.00000  # HCA2     CC32A    OC311    
	26   3.03544	106.5  0.00000	0.000    # CG2R53   CG3C52   CG3C52
	27   2.51508	111.0  0.00000	0.000    # CG2R53   CG3C52   HRA2
	28   2.16817	120.0  0.00000	0.000    # CG2R53   NG2R53   CG311 
	29   3.25226	111.0  0.00000	0.000    # CG2R53   NG2R53   CG3C52
	30   2.53025	113.5  0.48394	2.561    # CG311    CG321    CG311 
	31   1.44964	110.1  0.97698	2.179    # CG311    CG321    HGA2
	32   1.44964	110.1  0.97698	2.179    # CG311    CG331    HGA3
	33   2.16817	116.0  0.00000	0.000    # CG311    NG2R53   CG3C52
	34   2.53025	113.5  0.48394	2.561    # CG321    CG311    CG321 
	35  2.31344	114.0  0.34691	2.561    # CG321    CG311    CG331 
	36  1.49604	110.1  0.97698	2.179    # CG321    CG311    HGA1
	37  3.03544	113.5  0.00000	0.000    # CG321    CG311    NG2R53
	38  1.49604	110.1  0.97698	2.179    # CG331    CG311    HGA1
	39  3.03544	113.5  0.00000	0.000    # CG331    CG311    NG2R53
	40  5.20361	105.5  0.00000	0.000    # CG3C52   CG2R53   NG2R53
	41  2.81862	126.7  0.00000	0.000    # CG3C52   CG2R53   OG2D1 
	42  2.51508	109.5  0.48394	2.561    # CG3C52   CG3C52   CG3C52
	43  1.51772	111.4  0.97698	2.179    # CG3C52   CG3C52   HRA2
	44  3.90271	104.5  0.00000	0.000    # CG3C52   CG3C52   NG2R53
	45  2.08144	108.0  0.00000	0.000    # HGA1 CG311    NG2R53  
	46  1.53940	109.0  0.23416	1.802    # HGA2 CG321    HGA2
	47  1.53940	108.4  0.23416	1.802    # HGA3 CG331    HGA3
	48  1.66949	106.8  0.23416	1.802    # HRA2 CG3C52   HRA2
	49  2.55844	111.0  0.00000	0.000    # HRA2 CG3C52   NG2R53  
	50  2.81862	127.8  0.00000	0.000    # NG2R53   CG2R53   OG2D1 

Dihedral Coeffs

1   0.01474    3    180   0.000   # CG2R53   CG3C52   CG3C52   CG3C52
2   0.00000    3    0     1.000   # CG2R53   CG3C52   CG3C52   HRA2
3   0.03903    1    0     1.000   # CG2R53   NG2R53   CG321    CG331
4   0.00000    1    0     1.000   # CG2R53   NG2R53   CG321    HGA2
5   0.10017    3    180   0.000   # CG2R53   NG2R53   CG3C52   CG3C52
6   0.00000    3    0     1.000   # CG2R53   NG2R53   CG3C52   HRA2
7   0.04857    2    180   1.000   # CG321    NG2R53   CG2R53   CG3C52
8   0.10841    2    180   1.000   # CG321    NG2R53   CG2R53   OG2D1
9   0.02905    3    0     1.000   # CG321    NG2R53   CG3C52   CG3C52
10  0.00000    3    0     1.000   # CG321    NG2R53   CG3C52   HRA2
11  0.00000    1    0     1.000   # CG331    CG321    NG2R53   CG3C52
12  0.01735    2    180   0.000   # CG3C52   CG2R53   NG2R53   CG3C52
13  0.04553    3    180   0.000   # CG3C52   CG3C52   CG2R53   NG2R53
14  0.00347    3    0     1.000   # CG3C52   CG3C52   CG2R53   OG2D1
15  0.00824    3    0     1.000   # CG3C52   CG3C52   CG3C52   HRA2
16  0.09236    3    0     0.000   # CG3C52   CG3C52   CG3C52   NG2R53
17  0.11231    2    180   1.000   # CG3C52   NG2R53   CG2R53   OG2D1
18  0.00000    1    0     1.000   # CG3C52   NG2R53   CG321    HGA2
19  0.00694    3    0     1.000   # HGA2 CG321    CG331    HGA3
20  0.00867    3    0     1.000   # HGA3 CG331    CG321    NG2R53
21  0.00000    3    180   1.000   # HRA2 CG3C52   CG2R53   NG2R53
22  0.00000    3    0     1.000   # HRA2 CG3C52   CG2R53   OG2D1
23  0.00824    3    0     1.000   # HRA2 CG3C52   CG3C52   HRA2
24  0.00000    3    180   1.000   # HRA2 CG3C52   CG3C52   NG2R53
    25  0.01735          1        180      1.000  # CC32A    CC32A    OC311    HCP1 
    26  0.00043          2          0      0.000  # CC32A    CC32A    OC311    HCP1 
	27  0.01127          3          0      0.000  # CC32A    CC32A    OC311    HCP1 
	28  0.00824          3          0      1.000  # HCA2     CC32A    CC32A    HCA2         
	29  0.00607          3          0      1.000  # HCA2     CC32A    CC32A    OC311        
	30  0.00781          3          0      1.000  # HCA2     CC32A    OC311    HCP1     
    31  0.01431          1          0      1.000  # OC311    CC32A    CC32A    OC311
	32  0.09410          2          0      0.000  # OC311    CC32A    CC32A    OC311
	33  0.01951          3          0      0.000  # OC311    CC32A    CC32A    OC311
	34   0.01474	3	180	 0   # CG2R53   CG3C52   CG3C52   CG3C52  
	35   0.00000	3	0    1   # CG2R53   CG3C52   CG3C52   HRA2  
	36   0.03903	1	0    1   # CG2R53   NG2R53   CG311    CG321   
	37   0.03903	1	0    1   # CG2R53   NG2R53   CG311    CG331   
	38   0.00000	1	0    1   # CG2R53   NG2R53   CG311    HGA1  
	39   0.10017	3	180	 0   # CG2R53   NG2R53   CG3C52   CG3C52  
	40   0.00000	3	0    1   # CG2R53   NG2R53   CG3C52   HRA2  
	41   0.00867	3	0    1   # CG311    CG321    CG311    CG321   
	42   0.00867	3	0    1   # CG311    CG321    CG311    CG331   
	43  0.00846	3	0    1   # CG311    CG321    CG311    HGA1  
	44  0.00867	3	0    1   # CG311    CG321    CG311    NG2R53  
	45  0.04857	2	180	 1   # CG311    NG2R53   CG2R53   CG3C52  
	46  0.10841	2	180	 1   # CG311    NG2R53   CG2R53   OG2D1   
	47  0.02905	3	0    1   # CG311    NG2R53   CG3C52   CG3C52  
	48  0.00000	3	0    1   # CG311    NG2R53   CG3C52   HRA2  
	49  0.00867	3	0    1   # CG321    CG311    CG321    HGA2  
	50  0.00867	3	0    1   # CG321    CG311    CG331    HGA3  
	51  0.00000	1	0    1   # CG321    CG311    NG2R53   CG3C52  
	52  0.00867	3	0    1   # CG331    CG311    CG321    HGA2  
	53  0.00000	1	0    1   # CG331    CG311    NG2R53   CG3C52  
	54  0.01735	2	180	 0   # CG3C52   CG2R53   NG2R53   CG3C52  
	55  0.04553	3	180	 0   # CG3C52   CG3C52   CG2R53   NG2R53  
	56  0.00347	3	0    1   # CG3C52   CG3C52   CG2R53   OG2D1   
	57  0.00824	3	0    1   # CG3C52   CG3C52   CG3C52   HRA2  
	58  0.09236	3	0    0   # CG3C52   CG3C52   CG3C52   NG2R53  
	59  0.11231	2	180	 1   # CG3C52   NG2R53   CG2R53   OG2D1   
	60  0.00000	1	0    1   # CG3C52   NG2R53   CG311    HGA1  
	61  0.00846	3	0    1   # HGA1 CG311    CG321    HGA2  
	62  0.00846	3	0    1   # HGA1 CG311    CG331    HGA3  
	63  0.00867	3	0    1   # HGA2 CG321    CG311    NG2R53    
	64  0.00867	3	0    1   # HGA3 CG331    CG311    NG2R53    
	65  0.00000	3	180	 1   # HRA2 CG3C52   CG2R53   NG2R53    
	66  0.00000	3	0  	 1   # HRA2 CG3C52   CG2R53   OG2D1     
	67  0.00824	3	0  	 1   # HRA2 CG3C52   CG3C52   HRA2  
	68  0.00000	3	180	 1   # HRA2 CG3C52   CG3C52   NG2R53    

Improper Coeffs

1  3.90271  0.00000  # CG2R53   CG3C52   NG2R53   OG2D1
	2   3.90271	0.00000	 # CG2R53   CG3C52   NG2R53   OG2D1

Atoms # full

1 1 25 0.00 0.0 0.0 0.0 # Ag
2 2 25 0.00 4.1264 0.0 0.0 # Ag
3 3 25 0.00 8.2528 0.0 0.0 # Ag
4 4 25 0.00 12.3792 0.0 0.0 # Ag
5 5 25 0.00 16.5056 0.0 0.0 # Ag
6 6 25 0.00 20.632 0.0 0.0 # Ag
7 7 25 0.00 24.7584 0.0 0.0 # Ag
8 8 25 0.00 28.8848 0.0 0.0 # Ag
9 9 25 0.00 0.0 4.1264 0.0 # Ag
10 10 25 0.00 4.1264 4.1264 0.0 # Ag
11 11 25 0.00 8.2528 4.1264 0.0 # Ag
12 12 25 0.00 12.3792 4.1264 0.0 # Ag
13 13 25 0.00 16.5056 4.1264 0.0 # Ag
14 14 25 0.00 20.632 4.1264 0.0 # Ag
15 15 25 0.00 24.7584 4.1264 0.0 # Ag
16 16 25 0.00 28.8848 4.1264 0.0 # Ag
17 17 25 0.00 0.0 8.2528 0.0 # Ag
18 18 25 0.00 4.1264 8.2528 0.0 # Ag
19 19 25 0.00 8.2528 8.2528 0.0 # Ag
20 20 25 0.00 12.3792 8.2528 0.0 # Ag
21 21 25 0.00 16.5056 8.2528 0.0 # Ag
22 22 25 0.00 20.632 8.2528 0.0 # Ag
23 23 25 0.00 24.7584 8.2528 0.0 # Ag
24 24 25 0.00 28.8848 8.2528 0.0 # Ag
25 25 25 0.00 0.0 12.3792 0.0 # Ag
26 26 25 0.00 4.1264 12.3792 0.0 # Ag
27 27 25 0.00 8.2528 12.3792 0.0 # Ag
28 28 25 0.00 12.3792 12.3792 0.0 # Ag
29 29 25 0.00 16.5056 12.3792 0.0 # Ag
30 30 25 0.00 20.632 12.3792 0.0 # Ag
31 31 25 0.00 24.7584 12.3792 0.0 # Ag
32 32 25 0.00 28.8848 12.3792 0.0 # Ag
33 33 25 0.00 0.0 16.5056 0.0 # Ag
34 34 25 0.00 4.1264 16.5056 0.0 # Ag
35 35 25 0.00 8.2528 16.5056 0.0 # Ag
36 36 25 0.00 12.3792 16.5056 0.0 # Ag
37 37 25 0.00 16.5056 16.5056 0.0 # Ag
38 38 25 0.00 20.632 16.5056 0.0 # Ag
39 39 25 0.00 24.7584 16.5056 0.0 # Ag
40 40 25 0.00 28.8848 16.5056 0.0 # Ag
41 41 25 0.00 0.0 20.632 0.0 # Ag
42 42 25 0.00 4.1264 20.632 0.0 # Ag
43 43 25 0.00 8.2528 20.632 0.0 # Ag
44 44 25 0.00 12.3792 20.632 0.0 # Ag
45 45 25 0.00 16.5056 20.632 0.0 # Ag
46 46 25 0.00 20.632 20.632 0.0 # Ag
47 47 25 0.00 24.7584 20.632 0.0 # Ag
48 48 25 0.00 28.8848 20.632 0.0 # Ag
49 49 25 0.00 0.0 24.7584 0.0 # Ag
50 50 25 0.00 4.1264 24.7584 0.0 # Ag
51 51 25 0.00 8.2528 24.7584 0.0 # Ag
52 52 25 0.00 12.3792 24.7584 0.0 # Ag
53 53 25 0.00 16.5056 24.7584 0.0 # Ag
54 54 25 0.00 20.632 24.7584 0.0 # Ag
55 55 25 0.00 24.7584 24.7584 0.0 # Ag
56 56 25 0.00 28.8848 24.7584 0.0 # Ag
57 57 25 0.00 0.0 28.8848 0.0 # Ag
58 58 25 0.00 4.1264 28.8848 0.0 # Ag
59 59 25 0.00 8.2528 28.8848 0.0 # Ag
60 60 25 0.00 12.3792 28.8848 0.0 # Ag
61 61 25 0.00 16.5056 28.8848 0.0 # Ag
62 62 25 0.00 20.632 28.8848 0.0 # Ag
63 63 25 0.00 24.7584 28.8848 0.0 # Ag
64 64 25 0.00 28.8848 28.8848 0.0 # Ag
65 65 25 0.00 0.0 0.0 4.1264 # Ag
66 66 25 0.00 4.1264 0.0 4.1264 # Ag
67 67 25 0.00 8.2528 0.0 4.1264 # Ag
68 68 25 0.00 12.3792 0.0 4.1264 # Ag
69 69 25 0.00 16.5056 0.0 4.1264 # Ag
70 70 25 0.00 20.632 0.0 4.1264 # Ag
71 71 25 0.00 24.7584 0.0 4.1264 # Ag
72 72 25 0.00 28.8848 0.0 4.1264 # Ag
73 73 25 0.00 0.0 4.1264 4.1264 # Ag
74 74 25 0.00 4.1264 4.1264 4.1264 # Ag
75 75 25 0.00 8.2528 4.1264 4.1264 # Ag
76 76 25 0.00 12.3792 4.1264 4.1264 # Ag
77 77 25 0.00 16.5056 4.1264 4.1264 # Ag
78 78 25 0.00 20.632 4.1264 4.1264 # Ag
79 79 25 0.00 24.7584 4.1264 4.1264 # Ag
80 80 25 0.00 28.8848 4.1264 4.1264 # Ag
81 81 25 0.00 0.0 8.2528 4.1264 # Ag
82 82 25 0.00 4.1264 8.2528 4.1264 # Ag
83 83 25 0.00 8.2528 8.2528 4.1264 # Ag
84 84 25 0.00 12.3792 8.2528 4.1264 # Ag
85 85 25 0.00 16.5056 8.2528 4.1264 # Ag
86 86 25 0.00 20.632 8.2528 4.1264 # Ag
87 87 25 0.00 24.7584 8.2528 4.1264 # Ag
88 88 25 0.00 28.8848 8.2528 4.1264 # Ag
89 89 25 0.00 0.0 12.3792 4.1264 # Ag
90 90 25 0.00 4.1264 12.3792 4.1264 # Ag
91 91 25 0.00 8.2528 12.3792 4.1264 # Ag
92 92 25 0.00 12.3792 12.3792 4.1264 # Ag
93 93 25 0.00 16.5056 12.3792 4.1264 # Ag
94 94 25 0.00 20.632 12.3792 4.1264 # Ag
95 95 25 0.00 24.7584 12.3792 4.1264 # Ag
96 96 25 0.00 28.8848 12.3792 4.1264 # Ag
97 97 25 0.00 0.0 16.5056 4.1264 # Ag
98 98 25 0.00 4.1264 16.5056 4.1264 # Ag
99 99 25 0.00 8.2528 16.5056 4.1264 # Ag
100 100 25 0.00 12.3792 16.5056 4.1264 # Ag
101 101 25 0.00 16.5056 16.5056 4.1264 # Ag
102 102 25 0.00 20.632 16.5056 4.1264 # Ag
103 103 25 0.00 24.7584 16.5056 4.1264 # Ag
104 104 25 0.00 28.8848 16.5056 4.1264 # Ag
105 105 25 0.00 0.0 20.632 4.1264 # Ag
106 106 25 0.00 4.1264 20.632 4.1264 # Ag
107 107 25 0.00 8.2528 20.632 4.1264 # Ag
108 108 25 0.00 12.3792 20.632 4.1264 # Ag
109 109 25 0.00 16.5056 20.632 4.1264 # Ag
110 110 25 0.00 20.632 20.632 4.1264 # Ag
111 111 25 0.00 24.7584 20.632 4.1264 # Ag
112 112 25 0.00 28.8848 20.632 4.1264 # Ag
113 113 25 0.00 0.0 24.7584 4.1264 # Ag
114 114 25 0.00 4.1264 24.7584 4.1264 # Ag
115 115 25 0.00 8.2528 24.7584 4.1264 # Ag
116 116 25 0.00 12.3792 24.7584 4.1264 # Ag
117 117 25 0.00 16.5056 24.7584 4.1264 # Ag
118 118 25 0.00 20.632 24.7584 4.1264 # Ag
119 119 25 0.00 24.7584 24.7584 4.1264 # Ag
120 120 25 0.00 28.8848 24.7584 4.1264 # Ag
121 121 25 0.00 0.0 28.8848 4.1264 # Ag
122 122 25 0.00 4.1264 28.8848 4.1264 # Ag
123 123 25 0.00 8.2528 28.8848 4.1264 # Ag
124 124 25 0.00 12.3792 28.8848 4.1264 # Ag
125 125 25 0.00 16.5056 28.8848 4.1264 # Ag
126 126 25 0.00 20.632 28.8848 4.1264 # Ag
127 127 25 0.00 24.7584 28.8848 4.1264 # Ag
128 128 25 0.00 28.8848 28.8848 4.1264 # Ag
129 129 25 0.00 0.0 0.0 8.2528 # Ag
130 130 25 0.00 4.1264 0.0 8.2528 # Ag
131 131 25 0.00 8.2528 0.0 8.2528 # Ag
132 132 25 0.00 12.3792 0.0 8.2528 # Ag
133 133 25 0.00 16.5056 0.0 8.2528 # Ag
134 134 25 0.00 20.632 0.0 8.2528 # Ag
135 135 25 0.00 24.7584 0.0 8.2528 # Ag
136 136 25 0.00 28.8848 0.0 8.2528 # Ag
137 137 25 0.00 0.0 4.1264 8.2528 # Ag
138 138 25 0.00 4.1264 4.1264 8.2528 # Ag
139 139 25 0.00 8.2528 4.1264 8.2528 # Ag
140 140 25 0.00 12.3792 4.1264 8.2528 # Ag
141 141 25 0.00 16.5056 4.1264 8.2528 # Ag
142 142 25 0.00 20.632 4.1264 8.2528 # Ag
143 143 25 0.00 24.7584 4.1264 8.2528 # Ag
144 144 25 0.00 28.8848 4.1264 8.2528 # Ag
145 145 25 0.00 0.0 8.2528 8.2528 # Ag
146 146 25 0.00 4.1264 8.2528 8.2528 # Ag
147 147 25 0.00 8.2528 8.2528 8.2528 # Ag
148 148 25 0.00 12.3792 8.2528 8.2528 # Ag
149 149 25 0.00 16.5056 8.2528 8.2528 # Ag
150 150 25 0.00 20.632 8.2528 8.2528 # Ag
151 151 25 0.00 24.7584 8.2528 8.2528 # Ag
152 152 25 0.00 28.8848 8.2528 8.2528 # Ag
153 153 25 0.00 0.0 12.3792 8.2528 # Ag
154 154 25 0.00 4.1264 12.3792 8.2528 # Ag
155 155 25 0.00 8.2528 12.3792 8.2528 # Ag
156 156 25 0.00 12.3792 12.3792 8.2528 # Ag
157 157 25 0.00 16.5056 12.3792 8.2528 # Ag
158 158 25 0.00 20.632 12.3792 8.2528 # Ag
159 159 25 0.00 24.7584 12.3792 8.2528 # Ag
160 160 25 0.00 28.8848 12.3792 8.2528 # Ag
161 161 25 0.00 0.0 16.5056 8.2528 # Ag
162 162 25 0.00 4.1264 16.5056 8.2528 # Ag
163 163 25 0.00 8.2528 16.5056 8.2528 # Ag
164 164 25 0.00 12.3792 16.5056 8.2528 # Ag
165 165 25 0.00 16.5056 16.5056 8.2528 # Ag
166 166 25 0.00 20.632 16.5056 8.2528 # Ag
167 167 25 0.00 24.7584 16.5056 8.2528 # Ag
168 168 25 0.00 28.8848 16.5056 8.2528 # Ag
169 169 25 0.00 0.0 20.632 8.2528 # Ag
170 170 25 0.00 4.1264 20.632 8.2528 # Ag
171 171 25 0.00 8.2528 20.632 8.2528 # Ag
172 172 25 0.00 12.3792 20.632 8.2528 # Ag
173 173 25 0.00 16.5056 20.632 8.2528 # Ag
174 174 25 0.00 20.632 20.632 8.2528 # Ag
175 175 25 0.00 24.7584 20.632 8.2528 # Ag
176 176 25 0.00 28.8848 20.632 8.2528 # Ag
177 177 25 0.00 0.0 24.7584 8.2528 # Ag
178 178 25 0.00 4.1264 24.7584 8.2528 # Ag
179 179 25 0.00 8.2528 24.7584 8.2528 # Ag
180 180 25 0.00 12.3792 24.7584 8.2528 # Ag
181 181 25 0.00 16.5056 24.7584 8.2528 # Ag
182 182 25 0.00 20.632 24.7584 8.2528 # Ag
183 183 25 0.00 24.7584 24.7584 8.2528 # Ag
184 184 25 0.00 28.8848 24.7584 8.2528 # Ag
185 185 25 0.00 0.0 28.8848 8.2528 # Ag
186 186 25 0.00 4.1264 28.8848 8.2528 # Ag
187 187 25 0.00 8.2528 28.8848 8.2528 # Ag
188 188 25 0.00 12.3792 28.8848 8.2528 # Ag
189 189 25 0.00 16.5056 28.8848 8.2528 # Ag
190 190 25 0.00 20.632 28.8848 8.2528 # Ag
191 191 25 0.00 24.7584 28.8848 8.2528 # Ag
192 192 25 0.00 28.8848 28.8848 8.2528 # Ag
193 193 25 0.00 2.0632 2.0632 0.0 # Ag
194 194 25 0.00 6.1896 2.0632 0.0 # Ag
195 195 25 0.00 10.316 2.0632 0.0 # Ag
196 196 25 0.00 14.4424 2.0632 0.0 # Ag
197 197 25 0.00 18.5688 2.0632 0.0 # Ag
198 198 25 0.00 22.6952 2.0632 0.0 # Ag
199 199 25 0.00 26.8216 2.0632 0.0 # Ag
200 200 25 0.00 30.948 2.0632 0.0 # Ag
201 201 25 0.00 2.0632 6.1896 0.0 # Ag
202 202 25 0.00 6.1896 6.1896 0.0 # Ag
203 203 25 0.00 10.316 6.1896 0.0 # Ag
204 204 25 0.00 14.4424 6.1896 0.0 # Ag
205 205 25 0.00 18.5688 6.1896 0.0 # Ag
206 206 25 0.00 22.6952 6.1896 0.0 # Ag
207 207 25 0.00 26.8216 6.1896 0.0 # Ag
208 208 25 0.00 30.948 6.1896 0.0 # Ag
209 209 25 0.00 2.0632 10.316 0.0 # Ag
210 210 25 0.00 6.1896 10.316 0.0 # Ag
211 211 25 0.00 10.316 10.316 0.0 # Ag
212 212 25 0.00 14.4424 10.316 0.0 # Ag
213 213 25 0.00 18.5688 10.316 0.0 # Ag
214 214 25 0.00 22.6952 10.316 0.0 # Ag
215 215 25 0.00 26.8216 10.316 0.0 # Ag
216 216 25 0.00 30.948 10.316 0.0 # Ag
217 217 25 0.00 2.0632 14.4424 0.0 # Ag
218 218 25 0.00 6.1896 14.4424 0.0 # Ag
219 219 25 0.00 10.316 14.4424 0.0 # Ag
220 220 25 0.00 14.4424 14.4424 0.0 # Ag
221 221 25 0.00 18.5688 14.4424 0.0 # Ag
222 222 25 0.00 22.6952 14.4424 0.0 # Ag
223 223 25 0.00 26.8216 14.4424 0.0 # Ag
224 224 25 0.00 30.948 14.4424 0.0 # Ag
225 225 25 0.00 2.0632 18.5688 0.0 # Ag
226 226 25 0.00 6.1896 18.5688 0.0 # Ag
227 227 25 0.00 10.316 18.5688 0.0 # Ag
228 228 25 0.00 14.4424 18.5688 0.0 # Ag
229 229 25 0.00 18.5688 18.5688 0.0 # Ag
230 230 25 0.00 22.6952 18.5688 0.0 # Ag
231 231 25 0.00 26.8216 18.5688 0.0 # Ag
232 232 25 0.00 30.948 18.5688 0.0 # Ag
233 233 25 0.00 2.0632 22.6952 0.0 # Ag
234 234 25 0.00 6.1896 22.6952 0.0 # Ag
235 235 25 0.00 10.316 22.6952 0.0 # Ag
236 236 25 0.00 14.4424 22.6952 0.0 # Ag
237 237 25 0.00 18.5688 22.6952 0.0 # Ag
238 238 25 0.00 22.6952 22.6952 0.0 # Ag
239 239 25 0.00 26.8216 22.6952 0.0 # Ag
240 240 25 0.00 30.948 22.6952 0.0 # Ag
241 241 25 0.00 2.0632 26.8216 0.0 # Ag
242 242 25 0.00 6.1896 26.8216 0.0 # Ag
243 243 25 0.00 10.316 26.8216 0.0 # Ag
244 244 25 0.00 14.4424 26.8216 0.0 # Ag
245 245 25 0.00 18.5688 26.8216 0.0 # Ag
246 246 25 0.00 22.6952 26.8216 0.0 # Ag
247 247 25 0.00 26.8216 26.8216 0.0 # Ag
248 248 25 0.00 30.948 26.8216 0.0 # Ag
249 249 25 0.00 2.0632 30.948 0.0 # Ag
250 250 25 0.00 6.1896 30.948 0.0 # Ag
251 251 25 0.00 10.316 30.948 0.0 # Ag
252 252 25 0.00 14.4424 30.948 0.0 # Ag
253 253 25 0.00 18.5688 30.948 0.0 # Ag
254 254 25 0.00 22.6952 30.948 0.0 # Ag
255 255 25 0.00 26.8216 30.948 0.0 # Ag
256 256 25 0.00 30.948 30.948 0.0 # Ag
257 257 25 0.00 2.0632 2.0632 4.1264 # Ag
258 258 25 0.00 6.1896 2.0632 4.1264 # Ag
259 259 25 0.00 10.316 2.0632 4.1264 # Ag
260 260 25 0.00 14.4424 2.0632 4.1264 # Ag
261 261 25 0.00 18.5688 2.0632 4.1264 # Ag
262 262 25 0.00 22.6952 2.0632 4.1264 # Ag
263 263 25 0.00 26.8216 2.0632 4.1264 # Ag
264 264 25 0.00 30.948 2.0632 4.1264 # Ag
265 265 25 0.00 2.0632 6.1896 4.1264 # Ag
266 266 25 0.00 6.1896 6.1896 4.1264 # Ag
267 267 25 0.00 10.316 6.1896 4.1264 # Ag
268 268 25 0.00 14.4424 6.1896 4.1264 # Ag
269 269 25 0.00 18.5688 6.1896 4.1264 # Ag
270 270 25 0.00 22.6952 6.1896 4.1264 # Ag
271 271 25 0.00 26.8216 6.1896 4.1264 # Ag
272 272 25 0.00 30.948 6.1896 4.1264 # Ag
273 273 25 0.00 2.0632 10.316 4.1264 # Ag
274 274 25 0.00 6.1896 10.316 4.1264 # Ag
275 275 25 0.00 10.316 10.316 4.1264 # Ag
276 276 25 0.00 14.4424 10.316 4.1264 # Ag
277 277 25 0.00 18.5688 10.316 4.1264 # Ag
278 278 25 0.00 22.6952 10.316 4.1264 # Ag
279 279 25 0.00 26.8216 10.316 4.1264 # Ag
280 280 25 0.00 30.948 10.316 4.1264 # Ag
281 281 25 0.00 2.0632 14.4424 4.1264 # Ag
282 282 25 0.00 6.1896 14.4424 4.1264 # Ag
283 283 25 0.00 10.316 14.4424 4.1264 # Ag
284 284 25 0.00 14.4424 14.4424 4.1264 # Ag
285 285 25 0.00 18.5688 14.4424 4.1264 # Ag
286 286 25 0.00 22.6952 14.4424 4.1264 # Ag
287 287 25 0.00 26.8216 14.4424 4.1264 # Ag
288 288 25 0.00 30.948 14.4424 4.1264 # Ag
289 289 25 0.00 2.0632 18.5688 4.1264 # Ag
290 290 25 0.00 6.1896 18.5688 4.1264 # Ag
291 291 25 0.00 10.316 18.5688 4.1264 # Ag
292 292 25 0.00 14.4424 18.5688 4.1264 # Ag
293 293 25 0.00 18.5688 18.5688 4.1264 # Ag
294 294 25 0.00 22.6952 18.5688 4.1264 # Ag
295 295 25 0.00 26.8216 18.5688 4.1264 # Ag
296 296 25 0.00 30.948 18.5688 4.1264 # Ag
297 297 25 0.00 2.0632 22.6952 4.1264 # Ag
298 298 25 0.00 6.1896 22.6952 4.1264 # Ag
299 299 25 0.00 10.316 22.6952 4.1264 # Ag
300 300 25 0.00 14.4424 22.6952 4.1264 # Ag
301 301 25 0.00 18.5688 22.6952 4.1264 # Ag
302 302 25 0.00 22.6952 22.6952 4.1264 # Ag
303 303 25 0.00 26.8216 22.6952 4.1264 # Ag
304 304 25 0.00 30.948 22.6952 4.1264 # Ag
305 305 25 0.00 2.0632 26.8216 4.1264 # Ag
306 306 25 0.00 6.1896 26.8216 4.1264 # Ag
307 307 25 0.00 10.316 26.8216 4.1264 # Ag
308 308 25 0.00 14.4424 26.8216 4.1264 # Ag
309 309 25 0.00 18.5688 26.8216 4.1264 # Ag
310 310 25 0.00 22.6952 26.8216 4.1264 # Ag
311 311 25 0.00 26.8216 26.8216 4.1264 # Ag
312 312 25 0.00 30.948 26.8216 4.1264 # Ag
313 313 25 0.00 2.0632 30.948 4.1264 # Ag
314 314 25 0.00 6.1896 30.948 4.1264 # Ag
315 315 25 0.00 10.316 30.948 4.1264 # Ag
316 316 25 0.00 14.4424 30.948 4.1264 # Ag
317 317 25 0.00 18.5688 30.948 4.1264 # Ag
318 318 25 0.00 22.6952 30.948 4.1264 # Ag
319 319 25 0.00 26.8216 30.948 4.1264 # Ag
320 320 25 0.00 30.948 30.948 4.1264 # Ag
321 321 25 0.00 2.0632 2.0632 8.2528 # Ag
322 322 25 0.00 6.1896 2.0632 8.2528 # Ag
323 323 25 0.00 10.316 2.0632 8.2528 # Ag
324 324 25 0.00 14.4424 2.0632 8.2528 # Ag
325 325 25 0.00 18.5688 2.0632 8.2528 # Ag
326 326 25 0.00 22.6952 2.0632 8.2528 # Ag
327 327 25 0.00 26.8216 2.0632 8.2528 # Ag
328 328 25 0.00 30.948 2.0632 8.2528 # Ag
329 329 25 0.00 2.0632 6.1896 8.2528 # Ag
330 330 25 0.00 6.1896 6.1896 8.2528 # Ag
331 331 25 0.00 10.316 6.1896 8.2528 # Ag
332 332 25 0.00 14.4424 6.1896 8.2528 # Ag
333 333 25 0.00 18.5688 6.1896 8.2528 # Ag
334 334 25 0.00 22.6952 6.1896 8.2528 # Ag
335 335 25 0.00 26.8216 6.1896 8.2528 # Ag
336 336 25 0.00 30.948 6.1896 8.2528 # Ag
337 337 25 0.00 2.0632 10.316 8.2528 # Ag
338 338 25 0.00 6.1896 10.316 8.2528 # Ag
339 339 25 0.00 10.316 10.316 8.2528 # Ag
340 340 25 0.00 14.4424 10.316 8.2528 # Ag
341 341 25 0.00 18.5688 10.316 8.2528 # Ag
342 342 25 0.00 22.6952 10.316 8.2528 # Ag
343 343 25 0.00 26.8216 10.316 8.2528 # Ag
344 344 25 0.00 30.948 10.316 8.2528 # Ag
345 345 25 0.00 2.0632 14.4424 8.2528 # Ag
346 346 25 0.00 6.1896 14.4424 8.2528 # Ag
347 347 25 0.00 10.316 14.4424 8.2528 # Ag
348 348 25 0.00 14.4424 14.4424 8.2528 # Ag
349 349 25 0.00 18.5688 14.4424 8.2528 # Ag
350 350 25 0.00 22.6952 14.4424 8.2528 # Ag
351 351 25 0.00 26.8216 14.4424 8.2528 # Ag
352 352 25 0.00 30.948 14.4424 8.2528 # Ag
353 353 25 0.00 2.0632 18.5688 8.2528 # Ag
354 354 25 0.00 6.1896 18.5688 8.2528 # Ag
355 355 25 0.00 10.316 18.5688 8.2528 # Ag
356 356 25 0.00 14.4424 18.5688 8.2528 # Ag
357 357 25 0.00 18.5688 18.5688 8.2528 # Ag
358 358 25 0.00 22.6952 18.5688 8.2528 # Ag
359 359 25 0.00 26.8216 18.5688 8.2528 # Ag
360 360 25 0.00 30.948 18.5688 8.2528 # Ag
361 361 25 0.00 2.0632 22.6952 8.2528 # Ag
362 362 25 0.00 6.1896 22.6952 8.2528 # Ag
363 363 25 0.00 10.316 22.6952 8.2528 # Ag
364 364 25 0.00 14.4424 22.6952 8.2528 # Ag
365 365 25 0.00 18.5688 22.6952 8.2528 # Ag
366 366 25 0.00 22.6952 22.6952 8.2528 # Ag
367 367 25 0.00 26.8216 22.6952 8.2528 # Ag
368 368 25 0.00 30.948 22.6952 8.2528 # Ag
369 369 25 0.00 2.0632 26.8216 8.2528 # Ag
370 370 25 0.00 6.1896 26.8216 8.2528 # Ag
371 371 25 0.00 10.316 26.8216 8.2528 # Ag
372 372 25 0.00 14.4424 26.8216 8.2528 # Ag
373 373 25 0.00 18.5688 26.8216 8.2528 # Ag
374 374 25 0.00 22.6952 26.8216 8.2528 # Ag
375 375 25 0.00 26.8216 26.8216 8.2528 # Ag
376 376 25 0.00 30.948 26.8216 8.2528 # Ag
377 377 25 0.00 2.0632 30.948 8.2528 # Ag
378 378 25 0.00 6.1896 30.948 8.2528 # Ag
379 379 25 0.00 10.316 30.948 8.2528 # Ag
380 380 25 0.00 14.4424 30.948 8.2528 # Ag
381 381 25 0.00 18.5688 30.948 8.2528 # Ag
382 382 25 0.00 22.6952 30.948 8.2528 # Ag
383 383 25 0.00 26.8216 30.948 8.2528 # Ag
384 384 25 0.00 30.948 30.948 8.2528 # Ag
385 385 25 0.00 2.0632 0.0 2.0632 # Ag
386 386 25 0.00 6.1896 0.0 2.0632 # Ag
387 387 25 0.00 10.316 0.0 2.0632 # Ag
388 388 25 0.00 14.4424 0.0 2.0632 # Ag
389 389 25 0.00 18.5688 0.0 2.0632 # Ag
390 390 25 0.00 22.6952 0.0 2.0632 # Ag
391 391 25 0.00 26.8216 0.0 2.0632 # Ag
392 392 25 0.00 30.948 0.0 2.0632 # Ag
393 393 25 0.00 2.0632 4.1264 2.0632 # Ag
394 394 25 0.00 6.1896 4.1264 2.0632 # Ag
395 395 25 0.00 10.316 4.1264 2.0632 # Ag
396 396 25 0.00 14.4424 4.1264 2.0632 # Ag
397 397 25 0.00 18.5688 4.1264 2.0632 # Ag
398 398 25 0.00 22.6952 4.1264 2.0632 # Ag
399 399 25 0.00 26.8216 4.1264 2.0632 # Ag
400 400 25 0.00 30.948 4.1264 2.0632 # Ag
401 401 25 0.00 2.0632 8.2528 2.0632 # Ag
402 402 25 0.00 6.1896 8.2528 2.0632 # Ag
403 403 25 0.00 10.316 8.2528 2.0632 # Ag
404 404 25 0.00 14.4424 8.2528 2.0632 # Ag
405 405 25 0.00 18.5688 8.2528 2.0632 # Ag
406 406 25 0.00 22.6952 8.2528 2.0632 # Ag
407 407 25 0.00 26.8216 8.2528 2.0632 # Ag
408 408 25 0.00 30.948 8.2528 2.0632 # Ag
409 409 25 0.00 2.0632 12.3792 2.0632 # Ag
410 410 25 0.00 6.1896 12.3792 2.0632 # Ag
411 411 25 0.00 10.316 12.3792 2.0632 # Ag
412 412 25 0.00 14.4424 12.3792 2.0632 # Ag
413 413 25 0.00 18.5688 12.3792 2.0632 # Ag
414 414 25 0.00 22.6952 12.3792 2.0632 # Ag
415 415 25 0.00 26.8216 12.3792 2.0632 # Ag
416 416 25 0.00 30.948 12.3792 2.0632 # Ag
417 417 25 0.00 2.0632 16.5056 2.0632 # Ag
418 418 25 0.00 6.1896 16.5056 2.0632 # Ag
419 419 25 0.00 10.316 16.5056 2.0632 # Ag
420 420 25 0.00 14.4424 16.5056 2.0632 # Ag
421 421 25 0.00 18.5688 16.5056 2.0632 # Ag
422 422 25 0.00 22.6952 16.5056 2.0632 # Ag
423 423 25 0.00 26.8216 16.5056 2.0632 # Ag
424 424 25 0.00 30.948 16.5056 2.0632 # Ag
425 425 25 0.00 2.0632 20.632 2.0632 # Ag
426 426 25 0.00 6.1896 20.632 2.0632 # Ag
427 427 25 0.00 10.316 20.632 2.0632 # Ag
428 428 25 0.00 14.4424 20.632 2.0632 # Ag
429 429 25 0.00 18.5688 20.632 2.0632 # Ag
430 430 25 0.00 22.6952 20.632 2.0632 # Ag
431 431 25 0.00 26.8216 20.632 2.0632 # Ag
432 432 25 0.00 30.948 20.632 2.0632 # Ag
433 433 25 0.00 2.0632 24.7584 2.0632 # Ag
434 434 25 0.00 6.1896 24.7584 2.0632 # Ag
435 435 25 0.00 10.316 24.7584 2.0632 # Ag
436 436 25 0.00 14.4424 24.7584 2.0632 # Ag
437 437 25 0.00 18.5688 24.7584 2.0632 # Ag
438 438 25 0.00 22.6952 24.7584 2.0632 # Ag
439 439 25 0.00 26.8216 24.7584 2.0632 # Ag
440 440 25 0.00 30.948 24.7584 2.0632 # Ag
441 441 25 0.00 2.0632 28.8848 2.0632 # Ag
442 442 25 0.00 6.1896 28.8848 2.0632 # Ag
443 443 25 0.00 10.316 28.8848 2.0632 # Ag
444 444 25 0.00 14.4424 28.8848 2.0632 # Ag
445 445 25 0.00 18.5688 28.8848 2.0632 # Ag
446 446 25 0.00 22.6952 28.8848 2.0632 # Ag
447 447 25 0.00 26.8216 28.8848 2.0632 # Ag
448 448 25 0.00 30.948 28.8848 2.0632 # Ag
449 449 25 0.00 2.0632 0.0 6.1896 # Ag
450 450 25 0.00 6.1896 0.0 6.1896 # Ag
451 451 25 0.00 10.316 0.0 6.1896 # Ag
452 452 25 0.00 14.4424 0.0 6.1896 # Ag
453 453 25 0.00 18.5688 0.0 6.1896 # Ag
454 454 25 0.00 22.6952 0.0 6.1896 # Ag
455 455 25 0.00 26.8216 0.0 6.1896 # Ag
456 456 25 0.00 30.948 0.0 6.1896 # Ag
457 457 25 0.00 2.0632 4.1264 6.1896 # Ag
458 458 25 0.00 6.1896 4.1264 6.1896 # Ag
459 459 25 0.00 10.316 4.1264 6.1896 # Ag
460 460 25 0.00 14.4424 4.1264 6.1896 # Ag
461 461 25 0.00 18.5688 4.1264 6.1896 # Ag
462 462 25 0.00 22.6952 4.1264 6.1896 # Ag
463 463 25 0.00 26.8216 4.1264 6.1896 # Ag
464 464 25 0.00 30.948 4.1264 6.1896 # Ag
465 465 25 0.00 2.0632 8.2528 6.1896 # Ag
466 466 25 0.00 6.1896 8.2528 6.1896 # Ag
467 467 25 0.00 10.316 8.2528 6.1896 # Ag
468 468 25 0.00 14.4424 8.2528 6.1896 # Ag
469 469 25 0.00 18.5688 8.2528 6.1896 # Ag
470 470 25 0.00 22.6952 8.2528 6.1896 # Ag
471 471 25 0.00 26.8216 8.2528 6.1896 # Ag
472 472 25 0.00 30.948 8.2528 6.1896 # Ag
473 473 25 0.00 2.0632 12.3792 6.1896 # Ag
474 474 25 0.00 6.1896 12.3792 6.1896 # Ag
475 475 25 0.00 10.316 12.3792 6.1896 # Ag
476 476 25 0.00 14.4424 12.3792 6.1896 # Ag
477 477 25 0.00 18.5688 12.3792 6.1896 # Ag
478 478 25 0.00 22.6952 12.3792 6.1896 # Ag
479 479 25 0.00 26.8216 12.3792 6.1896 # Ag
480 480 25 0.00 30.948 12.3792 6.1896 # Ag
481 481 25 0.00 2.0632 16.5056 6.1896 # Ag
482 482 25 0.00 6.1896 16.5056 6.1896 # Ag
483 483 25 0.00 10.316 16.5056 6.1896 # Ag
484 484 25 0.00 14.4424 16.5056 6.1896 # Ag
485 485 25 0.00 18.5688 16.5056 6.1896 # Ag
486 486 25 0.00 22.6952 16.5056 6.1896 # Ag