LAMMPS Description

     3913  atoms
     3115  bonds
     5340  angles
     6625  dihedrals
     25  impropers

     14  atom types
     15  bond types
     27  angle types
     47  dihedral types
     1  improper types

  0.0 28.8848 xlo xhi
  0.0 28.8848 ylo yhi
  0.0 58.00 zlo zhi

Masses

	 1      1.008  # HRA2 
	 2      1.008  # HGA2 
	 3      1.008  # HGA3 
	 4     12.011  # CG2R53 
	 5     12.011  # CG321 
	 6     12.011  # CG331 
	 7     12.011  # CG3C52 
	 8     14.007  # NG2R53 
	 9    15.9994  # OG2D1 
    10 1.008    # HCA2
    11 1.008    # HCP1
	12 12.011   # CC32A
	13 15.9994  # OC311
    14 107.8682  # Ag

Bond Coeffs


	 1 13.009020 1.53 # CG2R53 CG3C52 
	 2 19.947164 1.38 # CG2R53 NG2R53 
	 3 24.717138 1.235 # CG2R53 OG2D1 
	 4 9.648357 1.53 # CG321 CG321 
	 5 9.648357 1.528 # CG321 CG331 
	 6 13.399291 1.111 # CG321 HGA2 
	 7 15.064792 1.446 # CG321 NG2R53 
	 8 13.963015 1.111 # CG331 HGA3 
	 9 8.455863 1.53 # CG3C52 CG3C52 
	 10 13.312564 1.1 # CG3C52 HRA2 
	 11 16.044458 1.45 # CG3C52 NG2R53 
    12   9.64860   1.53000  # CC32A    CC32A
    13  13.39962   1.11100  # CC32A    HCA2 
	14  18.56000   1.42000  # CC32A    OC311
	15  23.63364   0.96000  # HCP1 	OC311    

Angle Coeffs


	 1 3.035438 106.500000 0.000000 0 # CG2R53 CG3C52 CG3C52 
	 2 2.515077 111.000000 0.000000 0 # CG2R53 CG3C52 HRA2 
	 3 1.850403 119.479000 0.000000 0 # CG2R53 NG2R53 CG321 
	 4 3.252255 111.000000 0.000000 0 # CG2R53 NG2R53 CG3C52 
	 5 2.530254 113.600000 0.483936 2.561 # CG321 CG321 CG321 
	 6 2.515077 115.000000 0.346907 2.561 # CG321 CG321 CG331 
	 7 1.149130 110.100000 0.976977 2.179 # CG321 CG321 HGA2 
	 8 2.762899 111.767000 0.000000 0 # CG321 CG321 NG2R53 
	 9 1.500374 110.100000 0.976977 2.179 # CG321 CG331 HGA3 
	 10 2.047576 123.379000 0.000000 0 # CG321 NG2R53 CG3C52 
	 11 1.500374 110.100000 0.976977 2.179 # CG331 CG321 HGA2 
	 12 5.203608 105.500000 0.000000 0 # CG3C52 CG2R53 NG2R53 
	 13 2.818621 126.700000 0.000000 0 # CG3C52 CG2R53 OG2D1 
	 14 2.515077 109.500000 0.483936 2.561 # CG3C52 CG3C52 CG3C52 
	 15 1.517719 111.400000 0.976977 2.179 # CG3C52 CG3C52 HRA2 
	 16 3.902706 104.500000 0.000000 0 # CG3C52 CG3C52 NG2R53 
	 17 1.539401 109.000000 0.234162 1.802 # HGA2 CG321 HGA2 
	 18 2.273109 107.167000 0.000000 0 # HGA2 CG321 NG2R53 
	 19 1.539401 108.400000 0.234162 1.802 # HGA3 CG331 HGA3 
	 20 1.669491 106.800000 0.234162 1.802 # HRA2 CG3C52 HRA2 
	 21 2.558441 111.000000 0.000000 0 # HRA2 CG3C52 NG2R53 
	 22 2.818621 127.800000 0.000000 0 # NG2R53 CG2R53 OG2D1 
    23  1.14916  110.10000    0.97700    2.17900  # CC32A    CC32A    HCA2 
    24  3.28269  110.10000    0.00000    0.00000  # CC32A    CC32A    OC311
	25  2.16822  106.00000    0.00000    0.00000  # CC32A    OC311    HCP1 
	26  1.53944  109.00000    0.23417    1.80200  # HCA2 	  CC32A    HCA2     
	27  2.38505  108.89000    0.00000    0.00000  # HCA2     CC32A    OC311    

Dihedral Coeffs


	 1 0.014744 3 180 0 # CG2R53 CG3C52 CG3C52 CG3C52 
	 2 0.000000 3 0 1 # CG2R53 CG3C52 CG3C52 HRA2 
	 3 0.043493 1 0 1 # CG2R53 NG2R53 CG321 CG321 
	 4 0.051082 1 0 1 # CG2R53 NG2R53 CG321 HGA2 
	 5 0.100169 3 180 0 # CG2R53 NG2R53 CG3C52 CG3C52 
	 6 0.000000 3 0 1 # CG2R53 NG2R53 CG3C52 HRA2 
	 7 0.002797 2 0 1 # CG321 CG321 CG321 CG321 
	 8 0.006494 3 180 0 # CG321 CG321 CG321 CG321 
	 9 0.004101 4 0 0 # CG321 CG321 CG321 CG321 
	 10 0.004879 5 0 0 # CG321 CG321 CG321 CG321 
	 11 0.006527 2 0 1 # CG321 CG321 CG321 CG331 
	 12 0.003527 3 180 0 # CG321 CG321 CG321 CG331 
	 13 0.004694 4 0 0 # CG321 CG321 CG321 CG331 
	 14 0.008842 5 0 0 # CG321 CG321 CG321 CG331 
	 15 0.008456 3 0 1 # CG321 CG321 CG321 HGA2 
	 16 0.029964 1 180 1 # CG321 CG321 CG321 NG2R53 
	 17 0.006938 3 0 1 # CG321 CG321 CG331 HGA3 
	 18 0.014093 1 0 1 # CG321 CG321 NG2R53 CG3C52 
	 19 0.045748 3 0 0 # CG321 CG321 NG2R53 CG3C52 
	 20 0.130090 1 0 1 # CG321 NG2R53 CG2R53 CG3C52 
	 21 0.130090 1 180 1 # CG321 NG2R53 CG2R53 OG2D1 
	 22 0.130090 1 0 1 # CG321 NG2R53 CG3C52 CG3C52 
	 23 0.130090 1 180 1 # CG321 NG2R53 CG3C52 HRA2 
	 24 0.007805 3 0 1 # CG331 CG321 CG321 HGA2 
	 25 0.017345 2 180 0 # CG3C52 CG2R53 NG2R53 CG3C52 
	 26 0.045532 3 180 0 # CG3C52 CG3C52 CG2R53 NG2R53 
	 27 0.003469 3 0 1 # CG3C52 CG3C52 CG2R53 OG2D1 
	 28 0.008239 3 0 1 # CG3C52 CG3C52 CG3C52 HRA2 
	 29 0.092364 3 0 0 # CG3C52 CG3C52 CG3C52 NG2R53 
	 30 0.112311 2 180 1 # CG3C52 NG2R53 CG2R53 OG2D1 
	 31 0.007545 1 0 1 # CG3C52 NG2R53 CG321 HGA2 
	 32 0.009540 3 0 1 # HGA2 CG321 CG321 HGA2 
	 33 0.013226 1 180 1 # HGA2 CG321 CG321 NG2R53 
	 34 0.006938 3 0 1 # HGA2 CG321 CG331 HGA3 
	 35 0.000000 3 180 1 # HRA2 CG3C52 CG2R53 NG2R53 
	 36 0.000000 3 0 1 # HRA2 CG3C52 CG2R53 OG2D1 
	 37 0.008239 3 0 1 # HRA2 CG3C52 CG3C52 HRA2 
	 38 0.000000 3 180 1 # HRA2 CG3C52 CG3C52 NG2R53 
    39  0.01735          1        180      1.000  # CC32A    CC32A    OC311    HCP1 
    40  0.00043          2          0      0.000  # CC32A    CC32A    OC311    HCP1 
	41  0.01127          3          0      0.000  # CC32A    CC32A    OC311    HCP1 
	42  0.00824          3          0      1.000  # HCA2     CC32A    CC32A    HCA2         
	43  0.00607          3          0      1.000  # HCA2     CC32A    CC32A    OC311        
	44  0.00781          3          0      1.000  # HCA2     CC32A    OC311    HCP1     
    45  0.01431          1          0      1.000  # OC311    CC32A    CC32A    OC311
	46  0.09410          2          0      0.000  # OC311    CC32A    CC32A    OC311
	47  0.01951          3          0      0.000  # OC311    CC32A    CC32A    OC311

Improper Coeffs


	 1 3.902706 0 # CG2R53 CG3C52 NG2R53 OG2D1 

Atoms # full

1 1 14 0.00 0.0 0.0 0.0 # Ag
2 2 14 0.00 4.1264 0.0 0.0 # Ag
3 3 14 0.00 8.2528 0.0 0.0 # Ag
4 4 14 0.00 12.3792 0.0 0.0 # Ag
5 5 14 0.00 16.5056 0.0 0.0 # Ag
6 6 14 0.00 20.632 0.0 0.0 # Ag
7 7 14 0.00 24.7584 0.0 0.0 # Ag
8 8 14 0.00 0.0 4.1264 0.0 # Ag
9 9 14 0.00 4.1264 4.1264 0.0 # Ag
10 10 14 0.00 8.2528 4.1264 0.0 # Ag
11 11 14 0.00 12.3792 4.1264 0.0 # Ag
12 12 14 0.00 16.5056 4.1264 0.0 # Ag
13 13 14 0.00 20.632 4.1264 0.0 # Ag
14 14 14 0.00 24.7584 4.1264 0.0 # Ag
15 15 14 0.00 0.0 8.2528 0.0 # Ag
16 16 14 0.00 4.1264 8.2528 0.0 # Ag
17 17 14 0.00 8.2528 8.2528 0.0 # Ag
18 18 14 0.00 12.3792 8.2528 0.0 # Ag
19 19 14 0.00 16.5056 8.2528 0.0 # Ag
20 20 14 0.00 20.632 8.2528 0.0 # Ag
21 21 14 0.00 24.7584 8.2528 0.0 # Ag
22 22 14 0.00 0.0 12.3792 0.0 # Ag
23 23 14 0.00 4.1264 12.3792 0.0 # Ag
24 24 14 0.00 8.2528 12.3792 0.0 # Ag
25 25 14 0.00 12.3792 12.3792 0.0 # Ag
26 26 14 0.00 16.5056 12.3792 0.0 # Ag
27 27 14 0.00 20.632 12.3792 0.0 # Ag
28 28 14 0.00 24.7584 12.3792 0.0 # Ag
29 29 14 0.00 0.0 16.5056 0.0 # Ag
30 30 14 0.00 4.1264 16.5056 0.0 # Ag
31 31 14 0.00 8.2528 16.5056 0.0 # Ag
32 32 14 0.00 12.3792 16.5056 0.0 # Ag
33 33 14 0.00 16.5056 16.5056 0.0 # Ag
34 34 14 0.00 20.632 16.5056 0.0 # Ag
35 35 14 0.00 24.7584 16.5056 0.0 # Ag
36 36 14 0.00 0.0 20.632 0.0 # Ag
37 37 14 0.00 4.1264 20.632 0.0 # Ag
38 38 14 0.00 8.2528 20.632 0.0 # Ag
39 39 14 0.00 12.3792 20.632 0.0 # Ag
40 40 14 0.00 16.5056 20.632 0.0 # Ag
41 41 14 0.00 20.632 20.632 0.0 # Ag
42 42 14 0.00 24.7584 20.632 0.0 # Ag
43 43 14 0.00 0.0 24.7584 0.0 # Ag
44 44 14 0.00 4.1264 24.7584 0.0 # Ag
45 45 14 0.00 8.2528 24.7584 0.0 # Ag
46 46 14 0.00 12.3792 24.7584 0.0 # Ag
47 47 14 0.00 16.5056 24.7584 0.0 # Ag
48 48 14 0.00 20.632 24.7584 0.0 # Ag
49 49 14 0.00 24.7584 24.7584 0.0 # Ag
50 50 14 0.00 0.0 0.0 4.1264 # Ag
51 51 14 0.00 4.1264 0.0 4.1264 # Ag
52 52 14 0.00 8.2528 0.0 4.1264 # Ag
53 53 14 0.00 12.3792 0.0 4.1264 # Ag
54 54 14 0.00 16.5056 0.0 4.1264 # Ag
55 55 14 0.00 20.632 0.0 4.1264 # Ag
56 56 14 0.00 24.7584 0.0 4.1264 # Ag
57 57 14 0.00 0.0 4.1264 4.1264 # Ag
58 58 14 0.00 4.1264 4.1264 4.1264 # Ag
59 59 14 0.00 8.2528 4.1264 4.1264 # Ag
60 60 14 0.00 12.3792 4.1264 4.1264 # Ag
61 61 14 0.00 16.5056 4.1264 4.1264 # Ag
62 62 14 0.00 20.632 4.1264 4.1264 # Ag
63 63 14 0.00 24.7584 4.1264 4.1264 # Ag
64 64 14 0.00 0.0 8.2528 4.1264 # Ag
65 65 14 0.00 4.1264 8.2528 4.1264 # Ag
66 66 14 0.00 8.2528 8.2528 4.1264 # Ag
67 67 14 0.00 12.3792 8.2528 4.1264 # Ag
68 68 14 0.00 16.5056 8.2528 4.1264 # Ag
69 69 14 0.00 20.632 8.2528 4.1264 # Ag
70 70 14 0.00 24.7584 8.2528 4.1264 # Ag
71 71 14 0.00 0.0 12.3792 4.1264 # Ag
72 72 14 0.00 4.1264 12.3792 4.1264 # Ag
73 73 14 0.00 8.2528 12.3792 4.1264 # Ag
74 74 14 0.00 12.3792 12.3792 4.1264 # Ag
75 75 14 0.00 16.5056 12.3792 4.1264 # Ag
76 76 14 0.00 20.632 12.3792 4.1264 # Ag
77 77 14 0.00 24.7584 12.3792 4.1264 # Ag
78 78 14 0.00 0.0 16.5056 4.1264 # Ag
79 79 14 0.00 4.1264 16.5056 4.1264 # Ag
80 80 14 0.00 8.2528 16.5056 4.1264 # Ag
81 81 14 0.00 12.3792 16.5056 4.1264 # Ag
82 82 14 0.00 16.5056 16.5056 4.1264 # Ag
83 83 14 0.00 20.632 16.5056 4.1264 # Ag
84 84 14 0.00 24.7584 16.5056 4.1264 # Ag
85 85 14 0.00 0.0 20.632 4.1264 # Ag
86 86 14 0.00 4.1264 20.632 4.1264 # Ag
87 87 14 0.00 8.2528 20.632 4.1264 # Ag
88 88 14 0.00 12.3792 20.632 4.1264 # Ag
89 89 14 0.00 16.5056 20.632 4.1264 # Ag
90 90 14 0.00 20.632 20.632 4.1264 # Ag
91 91 14 0.00 24.7584 20.632 4.1264 # Ag
92 92 14 0.00 0.0 24.7584 4.1264 # Ag
93 93 14 0.00 4.1264 24.7584 4.1264 # Ag
94 94 14 0.00 8.2528 24.7584 4.1264 # Ag
95 95 14 0.00 12.3792 24.7584 4.1264 # Ag
96 96 14 0.00 16.5056 24.7584 4.1264 # Ag
97 97 14 0.00 20.632 24.7584 4.1264 # Ag
98 98 14 0.00 24.7584 24.7584 4.1264 # Ag
99 99 14 0.00 0.0 0.0 8.2528 # Ag
100 100 14 0.00 4.1264 0.0 8.2528 # Ag
101 101 14 0.00 8.2528 0.0 8.2528 # Ag
102 102 14 0.00 12.3792 0.0 8.2528 # Ag
103 103 14 0.00 16.5056 0.0 8.2528 # Ag
104 104 14 0.00 20.632 0.0 8.2528 # Ag
105 105 14 0.00 24.7584 0.0 8.2528 # Ag
106 106 14 0.00 0.0 4.1264 8.2528 # Ag
107 107 14 0.00 4.1264 4.1264 8.2528 # Ag
108 108 14 0.00 8.2528 4.1264 8.2528 # Ag
109 109 14 0.00 12.3792 4.1264 8.2528 # Ag
110 110 14 0.00 16.5056 4.1264 8.2528 # Ag
111 111 14 0.00 20.632 4.1264 8.2528 # Ag
112 112 14 0.00 24.7584 4.1264 8.2528 # Ag
113 113 14 0.00 0.0 8.2528 8.2528 # Ag
114 114 14 0.00 4.1264 8.2528 8.2528 # Ag
115 115 14 0.00 8.2528 8.2528 8.2528 # Ag
116 116 14 0.00 12.3792 8.2528 8.2528 # Ag
117 117 14 0.00 16.5056 8.2528 8.2528 # Ag
118 118 14 0.00 20.632 8.2528 8.2528 # Ag
119 119 14 0.00 24.7584 8.2528 8.2528 # Ag
120 120 14 0.00 0.0 12.3792 8.2528 # Ag
121 121 14 0.00 4.1264 12.3792 8.2528 # Ag
122 122 14 0.00 8.2528 12.3792 8.2528 # Ag
123 123 14 0.00 12.3792 12.3792 8.2528 # Ag
124 124 14 0.00 16.5056 12.3792 8.2528 # Ag
125 125 14 0.00 20.632 12.3792 8.2528 # Ag
126 126 14 0.00 24.7584 12.3792 8.2528 # Ag
127 127 14 0.00 0.0 16.5056 8.2528 # Ag
128 128 14 0.00 4.1264 16.5056 8.2528 # Ag
129 129 14 0.00 8.2528 16.5056 8.2528 # Ag
130 130 14 0.00 12.3792 16.5056 8.2528 # Ag
131 131 14 0.00 16.5056 16.5056 8.2528 # Ag
132 132 14 0.00 20.632 16.5056 8.2528 # Ag
133 133 14 0.00 24.7584 16.5056 8.2528 # Ag
134 134 14 0.00 0.0 20.632 8.2528 # Ag
135 135 14 0.00 4.1264 20.632 8.2528 # Ag
136 136 14 0.00 8.2528 20.632 8.2528 # Ag
137 137 14 0.00 12.3792 20.632 8.2528 # Ag
138 138 14 0.00 16.5056 20.632 8.2528 # Ag
139 139 14 0.00 20.632 20.632 8.2528 # Ag
140 140 14 0.00 24.7584 20.632 8.2528 # Ag
141 141 14 0.00 0.0 24.7584 8.2528 # Ag
142 142 14 0.00 4.1264 24.7584 8.2528 # Ag
143 143 14 0.00 8.2528 24.7584 8.2528 # Ag
144 144 14 0.00 12.3792 24.7584 8.2528 # Ag
145 145 14 0.00 16.5056 24.7584 8.2528 # Ag
146 146 14 0.00 20.632 24.7584 8.2528 # Ag
147 147 14 0.00 24.7584 24.7584 8.2528 # Ag
148 148 14 0.00 2.0632 2.0632 0.0 # Ag
149 149 14 0.00 6.1896 2.0632 0.0 # Ag
150 150 14 0.00 10.316 2.0632 0.0 # Ag
151 151 14 0.00 14.4424 2.0632 0.0 # Ag
152 152 14 0.00 18.5688 2.0632 0.0 # Ag
153 153 14 0.00 22.6952 2.0632 0.0 # Ag
154 154 14 0.00 26.8216 2.0632 0.0 # Ag
155 155 14 0.00 2.0632 6.1896 0.0 # Ag
156 156 14 0.00 6.1896 6.1896 0.0 # Ag
157 157 14 0.00 10.316 6.1896 0.0 # Ag
158 158 14 0.00 14.4424 6.1896 0.0 # Ag
159 159 14 0.00 18.5688 6.1896 0.0 # Ag
160 160 14 0.00 22.6952 6.1896 0.0 # Ag
161 161 14 0.00 26.8216 6.1896 0.0 # Ag
162 162 14 0.00 2.0632 10.316 0.0 # Ag
163 163 14 0.00 6.1896 10.316 0.0 # Ag
164 164 14 0.00 10.316 10.316 0.0 # Ag
165 165 14 0.00 14.4424 10.316 0.0 # Ag
166 166 14 0.00 18.5688 10.316 0.0 # Ag
167 167 14 0.00 22.6952 10.316 0.0 # Ag
168 168 14 0.00 26.8216 10.316 0.0 # Ag
169 169 14 0.00 2.0632 14.4424 0.0 # Ag
170 170 14 0.00 6.1896 14.4424 0.0 # Ag
171 171 14 0.00 10.316 14.4424 0.0 # Ag
172 172 14 0.00 14.4424 14.4424 0.0 # Ag
173 173 14 0.00 18.5688 14.4424 0.0 # Ag
174 174 14 0.00 22.6952 14.4424 0.0 # Ag
175 175 14 0.00 26.8216 14.4424 0.0 # Ag
176 176 14 0.00 2.0632 18.5688 0.0 # Ag
177 177 14 0.00 6.1896 18.5688 0.0 # Ag
178 178 14 0.00 10.316 18.5688 0.0 # Ag
179 179 14 0.00 14.4424 18.5688 0.0 # Ag
180 180 14 0.00 18.5688 18.5688 0.0 # Ag
181 181 14 0.00 22.6952 18.5688 0.0 # Ag
182 182 14 0.00 26.8216 18.5688 0.0 # Ag
183 183 14 0.00 2.0632 22.6952 0.0 # Ag
184 184 14 0.00 6.1896 22.6952 0.0 # Ag
185 185 14 0.00 10.316 22.6952 0.0 # Ag
186 186 14 0.00 14.4424 22.6952 0.0 # Ag
187 187 14 0.00 18.5688 22.6952 0.0 # Ag
188 188 14 0.00 22.6952 22.6952 0.0 # Ag
189 189 14 0.00 26.8216 22.6952 0.0 # Ag
190 190 14 0.00 2.0632 26.8216 0.0 # Ag
191 191 14 0.00 6.1896 26.8216 0.0 # Ag
192 192 14 0.00 10.316 26.8216 0.0 # Ag
193 193 14 0.00 14.4424 26.8216 0.0 # Ag
194 194 14 0.00 18.5688 26.8216 0.0 # Ag
195 195 14 0.00 22.6952 26.8216 0.0 # Ag
196 196 14 0.00 26.8216 26.8216 0.0 # Ag
197 197 14 0.00 2.0632 2.0632 4.1264 # Ag
198 198 14 0.00 6.1896 2.0632 4.1264 # Ag
199 199 14 0.00 10.316 2.0632 4.1264 # Ag
200 200 14 0.00 14.4424 2.0632 4.1264 # Ag
201 201 14 0.00 18.5688 2.0632 4.1264 # Ag
202 202 14 0.00 22.6952 2.0632 4.1264 # Ag
203 203 14 0.00 26.8216 2.0632 4.1264 # Ag
204 204 14 0.00 2.0632 6.1896 4.1264 # Ag
205 205 14 0.00 6.1896 6.1896 4.1264 # Ag
206 206 14 0.00 10.316 6.1896 4.1264 # Ag
207 207 14 0.00 14.4424 6.1896 4.1264 # Ag
208 208 14 0.00 18.5688 6.1896 4.1264 # Ag
209 209 14 0.00 22.6952 6.1896 4.1264 # Ag
210 210 14 0.00 26.8216 6.1896 4.1264 # Ag
211 211 14 0.00 2.0632 10.316 4.1264 # Ag
212 212 14 0.00 6.1896 10.316 4.1264 # Ag
213 213 14 0.00 10.316 10.316 4.1264 # Ag
214 214 14 0.00 14.4424 10.316 4.1264 # Ag
215 215 14 0.00 18.5688 10.316 4.1264 # Ag
216 216 14 0.00 22.6952 10.316 4.1264 # Ag
217 217 14 0.00 26.8216 10.316 4.1264 # Ag
218 218 14 0.00 2.0632 14.4424 4.1264 # Ag
219 219 14 0.00 6.1896 14.4424 4.1264 # Ag
220 220 14 0.00 10.316 14.4424 4.1264 # Ag
221 221 14 0.00 14.4424 14.4424 4.1264 # Ag
222 222 14 0.00 18.5688 14.4424 4.1264 # Ag
223 223 14 0.00 22.6952 14.4424 4.1264 # Ag
224 224 14 0.00 26.8216 14.4424 4.1264 # Ag
225 225 14 0.00 2.0632 18.5688 4.1264 # Ag
226 226 14 0.00 6.1896 18.5688 4.1264 # Ag
227 227 14 0.00 10.316 18.5688 4.1264 # Ag
228 228 14 0.00 14.4424 18.5688 4.1264 # Ag
229 229 14 0.00 18.5688 18.5688 4.1264 # Ag
230 230 14 0.00 22.6952 18.5688 4.1264 # Ag
231 231 14 0.00 26.8216 18.5688 4.1264 # Ag
232 232 14 0.00 2.0632 22.6952 4.1264 # Ag
233 233 14 0.00 6.1896 22.6952 4.1264 # Ag
234 234 14 0.00 10.316 22.6952 4.1264 # Ag
235 235 14 0.00 14.4424 22.6952 4.1264 # Ag
236 236 14 0.00 18.5688 22.6952 4.1264 # Ag
237 237 14 0.00 22.6952 22.6952 4.1264 # Ag
238 238 14 0.00 26.8216 22.6952 4.1264 # Ag
239 239 14 0.00 2.0632 26.8216 4.1264 # Ag
240 240 14 0.00 6.1896 26.8216 4.1264 # Ag
241 241 14 0.00 10.316 26.8216 4.1264 # Ag
242 242 14 0.00 14.4424 26.8216 4.1264 # Ag
243 243 14 0.00 18.5688 26.8216 4.1264 # Ag
244 244 14 0.00 22.6952 26.8216 4.1264 # Ag
245 245 14 0.00 26.8216 26.8216 4.1264 # Ag
246 246 14 0.00 2.0632 2.0632 8.2528 # Ag
247 247 14 0.00 6.1896 2.0632 8.2528 # Ag
248 248 14 0.00 10.316 2.0632 8.2528 # Ag
249 249 14 0.00 14.4424 2.0632 8.2528 # Ag
250 250 14 0.00 18.5688 2.0632 8.2528 # Ag
251 251 14 0.00 22.6952 2.0632 8.2528 # Ag
252 252 14 0.00 26.8216 2.0632 8.2528 # Ag
253 253 14 0.00 2.0632 6.1896 8.2528 # Ag
254 254 14 0.00 6.1896 6.1896 8.2528 # Ag
255 255 14 0.00 10.316 6.1896 8.2528 # Ag
256 256 14 0.00 14.4424 6.1896 8.2528 # Ag
257 257 14 0.00 18.5688 6.1896 8.2528 # Ag
258 258 14 0.00 22.6952 6.1896 8.2528 # Ag
259 259 14 0.00 26.8216 6.1896 8.2528 # Ag
260 260 14 0.00 2.0632 10.316 8.2528 # Ag
261 261 14 0.00 6.1896 10.316 8.2528 # Ag
262 262 14 0.00 10.316 10.316 8.2528 # Ag
263 263 14 0.00 14.4424 10.316 8.2528 # Ag
264 264 14 0.00 18.5688 10.316 8.2528 # Ag
265 265 14 0.00 22.6952 10.316 8.2528 # Ag
266 266 14 0.00 26.8216 10.316 8.2528 # Ag
267 267 14 0.00 2.0632 14.4424 8.2528 # Ag
268 268 14 0.00 6.1896 14.4424 8.2528 # Ag
269 269 14 0.00 10.316 14.4424 8.2528 # Ag
270 270 14 0.00 14.4424 14.4424 8.2528 # Ag
271 271 14 0.00 18.5688 14.4424 8.2528 # Ag
272 272 14 0.00 22.6952 14.4424 8.2528 # Ag
273 273 14 0.00 26.8216 14.4424 8.2528 # Ag
274 274 14 0.00 2.0632 18.5688 8.2528 # Ag
275 275 14 0.00 6.1896 18.5688 8.2528 # Ag
276 276 14 0.00 10.316 18.5688 8.2528 # Ag
277 277 14 0.00 14.4424 18.5688 8.2528 # Ag
278 278 14 0.00 18.5688 18.5688 8.2528 # Ag
279 279 14 0.00 22.6952 18.5688 8.2528 # Ag
280 280 14 0.00 26.8216 18.5688 8.2528 # Ag
281 281 14 0.00 2.0632 22.6952 8.2528 # Ag
282 282 14 0.00 6.1896 22.6952 8.2528 # Ag
283 283 14 0.00 10.316 22.6952 8.2528 # Ag
284 284 14 0.00 14.4424 22.6952 8.2528 # Ag
285 285 14 0.00 18.5688 22.6952 8.2528 # Ag
286 286 14 0.00 22.6952 22.6952 8.2528 # Ag
287 287 14 0.00 26.8216 22.6952 8.2528 # Ag
288 288 14 0.00 2.0632 26.8216 8.2528 # Ag
289 289 14 0.00 6.1896 26.8216 8.2528 # Ag
290 290 14 0.00 10.316 26.8216 8.2528 # Ag
291 291 14 0.00 14.4424 26.8216 8.2528 # Ag
292 292 14 0.00 18.5688 26.8216 8.2528 # Ag
293 293 14 0.00 22.6952 26.8216 8.2528 # Ag
294 294 14 0.00 26.8216 26.8216 8.2528 # Ag
295 295 14 0.00 2.0632 0.0 2.0632 # Ag
296 296 14 0.00 6.1896 0.0 2.0632 # Ag
297 297 14 0.00 10.316 0.0 2.0632 # Ag
298 298 14 0.00 14.4424 0.0 2.0632 # Ag
299 299 14 0.00 18.5688 0.0 2.0632 # Ag
300 300 14 0.00 22.6952 0.0 2.0632 # Ag
301 301 14 0.00 26.8216 0.0 2.0632 # Ag
302 302 14 0.00 2.0632 4.1264 2.0632 # Ag
303 303 14 0.00 6.1896 4.1264 2.0632 # Ag
304 304 14 0.00 10.316 4.1264 2.0632 # Ag
305 305 14 0.00 14.4424 4.1264 2.0632 # Ag
306 306 14 0.00 18.5688 4.1264 2.0632 # Ag
307 307 14 0.00 22.6952 4.1264 2.0632 # Ag
308 308 14 0.00 26.8216 4.1264 2.0632 # Ag
309 309 14 0.00 2.0632 8.2528 2.0632 # Ag
310 310 14 0.00 6.1896 8.2528 2.0632 # Ag
311 311 14 0.00 10.316 8.2528 2.0632 # Ag
312 312 14 0.00 14.4424 8.2528 2.0632 # Ag
313 313 14 0.00 18.5688 8.2528 2.0632 # Ag
314 314 14 0.00 22.6952 8.2528 2.0632 # Ag
315 315 14 0.00 26.8216 8.2528 2.0632 # Ag
316 316 14 0.00 2.0632 12.3792 2.0632 # Ag
317 317 14 0.00 6.1896 12.3792 2.0632 # Ag
318 318 14 0.00 10.316 12.3792 2.0632 # Ag
319 319 14 0.00 14.4424 12.3792 2.0632 # Ag
320 320 14 0.00 18.5688 12.3792 2.0632 # Ag
321 321 14 0.00 22.6952 12.3792 2.0632 # Ag
322 322 14 0.00 26.8216 12.3792 2.0632 # Ag
323 323 14 0.00 2.0632 16.5056 2.0632 # Ag
324 324 14 0.00 6.1896 16.5056 2.0632 # Ag
325 325 14 0.00 10.316 16.5056 2.0632 # Ag
326 326 14 0.00 14.4424 16.5056 2.0632 # Ag
327 327 14 0.00 18.5688 16.5056 2.0632 # Ag
328 328 14 0.00 22.6952 16.5056 2.0632 # Ag
329 329 14 0.00 26.8216 16.5056 2.0632 # Ag
330 330 14 0.00 2.0632 20.632 2.0632 # Ag
331 331 14 0.00 6.1896 20.632 2.0632 # Ag
332 332 14 0.00 10.316 20.632 2.0632 # Ag
333 333 14 0.00 14.4424 20.632 2.0632 # Ag
334 334 14 0.00 18.5688 20.632 2.0632 # Ag
335 335 14 0.00 22.6952 20.632 2.0632 # Ag
336 336 14 0.00 26.8216 20.632 2.0632 # Ag
337 337 14 0.00 2.0632 24.7584 2.0632 # Ag
338 338 14 0.00 6.1896 24.7584 2.0632 # Ag
339 339 14 0.00 10.316 24.7584 2.0632 # Ag
340 340 14 0.00 14.4424 24.7584 2.0632 # Ag
341 341 14 0.00 18.5688 24.7584 2.0632 # Ag
342 342 14 0.00 22.6952 24.7584 2.0632 # Ag
343 343 14 0.00 26.8216 24.7584 2.0632 # Ag
344 344 14 0.00 2.0632 0.0 6.1896 # Ag
345 345 14 0.00 6.1896 0.0 6.1896 # Ag
346 346 14 0.00 10.316 0.0 6.1896 # Ag
347 347 14 0.00 14.4424 0.0 6.1896 # Ag
348 348 14 0.00 18.5688 0.0 6.1896 # Ag
349 349 14 0.00 22.6952 0.0 6.1896 # Ag
350 350 14 0.00 26.8216 0.0 6.1896 # Ag
351 351 14 0.00 2.0632 4.1264 6.1896 # Ag
352 352 14 0.00 6.1896 4.1264 6.1896 # Ag
353 353 14 0.00 10.316 4.1264 6.1896 # Ag
354 354 14 0.00 14.4424 4.1264 6.1896 # Ag
355 355 14 0.00 18.5688 4.1264 6.1896 # Ag
356 356 14 0.00 22.6952 4.1264 6.1896 # Ag
357 357 14 0.00 26.8216 4.1264 6.1896 # Ag
358 358 14 0.00 2.0632 8.2528 6.1896 # Ag
359 359 14 0.00 6.1896 8.2528 6.1896 # Ag
360 360 14 0.00 10.316 8.2528 6.1896 # Ag
361 361 14 0.00 14.4424 8.2528 6.1896 # Ag
362 362 14 0.00 18.5688 8.2528 6.1896 # Ag
363 363 14 0.00 22.6952 8.2528 6.1896 # Ag
364 364 14 0.00 26.8216 8.2528 6.1896 # Ag
365 365 14 0.00 2.0632 12.3792 6.1896 # Ag
366 366 14 0.00 6.1896 12.3792 6.1896 # Ag
367 367 14 0.00 10.316 12.3792 6.1896 # Ag
368 368 14 0.00 14.4424 12.3792 6.1896 # Ag
369 369 14 0.00 18.5688 12.3792 6.1896 # Ag
370 370 14 0.00 22.6952 12.3792 6.1896 # Ag
371 371 14 0.00 26.8216 12.3792 6.1896 # Ag
372 372 14 0.00 2.0632 16.5056 6.1896 # Ag
373 373 14 0.00 6.1896 16.5056 6.1896 # Ag
374 374 14 0.00 10.316 16.5056 6.1896 # Ag
375 375 14 0.00 14.4424 16.5056 6.1896 # Ag
376 376 14 0.00 18.5688 16.5056 6.1896 # Ag
377 377 14 0.00 22.6952 16.5056 6.1896 # Ag
378 378 14 0.00 26.8216 16.5056 6.1896 # Ag
379 379 14 0.00 2.0632 20.632 6.1896 # Ag
380 380 14 0.00 6.1896 20.632 6.1896 # Ag
381 381 14 0.00 10.316 20.632 6.1896 # Ag
382 382 14 0.00 14.4424 20.632 6.1896 # Ag
383 383 14 0.00 18.5688 20.632 6.1896 # Ag
384 384 14 0.00 22.6952 20.632 6.1896 # Ag
385 385 14 0.00 26.8216 20.632 6.1896 # Ag
386 386 14 0.00 2.0632 24.7584 6.1896 # Ag
387 387 14 0.00 6.1896 24.7584 6.1896 # Ag
388 388 14 0.00 10.316 24.7584 6.1896 # Ag
389 389 14 0.00 14.4424 24.7584 6.1896 # Ag
390 390 14 0.00 18.5688 24.7584 6.1896 # Ag
391 391 14 0.00 22.6952 24.7584 6.1896 # Ag
392 392 14 0.00 26.8216 24.7584 6.1896 # Ag
393 393 14 0.00 2.0632 0.0 10.316 # Ag
394 394 14 0.00 6.1896 0.0 10.316 # Ag
395 395 14 0.00 10.316 0.0 10.316 # Ag
396 396 14 0.00 14.4424 0.0 10.316 # Ag
397 397 14 0.00 18.5688 0.0 10.316 # Ag
398 398 14 0.00 22.6952 0.0 10.316 # Ag
399 399 14 0.00 26.8216 0.0 10.316 # Ag
400 400 14 0.00 2.0632 4.1264 10.316 # Ag
401 401 14 0.00 6.1896 4.1264 10.316 # Ag
402 402 14 0.00 10.316 4.1264 10.316 # Ag
403 403 14 0.00 14.4424 4.1264 10.316 # Ag
404 404 14 0.00 18.5688 4.1264 10.316 # Ag
405 405 14 0.00 22.6952 4.1264 10.316 # Ag
406 406 14 0.00 26.8216 4.1264 10.316 # Ag
407 407 14 0.00 2.0632 8.2528 10.316 # Ag
408 408 14 0.00 6.1896 8.2528 10.316 # Ag
409 409 14 0.00 10.316 8.2528 10.316 # Ag
410 410 14 0.00 14.4424 8.2528 10.316 # Ag
411 411 14 0.00 18.5688 8.2528 10.316 # Ag
412 412 14 0.00 22.6952 8.2528 10.316 # Ag
413 413 14 0.00 26.8216 8.2528 10.316 # Ag
414 414 14 0.00 2.0632 12.3792 10.316 # Ag
415 415 14 0.00 6.1896 12.3792 10.316 # Ag
416 416 14 0.00 10.316 12.3792 10.316 # Ag
417 417 14 0.00 14.4424 12.3792 10.316 # Ag
418 418 14 0.00 18.5688 12.3792 10.316 # Ag
419 419 14 0.00 22.6952 12.3792 10.316 # Ag
420 420 14 0.00 26.8216 12.3792 10.316 # Ag
421 421 14 0.00 2.0632 16.5056 10.316 # Ag
422 422 14 0.00 6.1896 16.5056 10.316 # Ag
423 423 14 0.00 10.316 16.5056 10.316 # Ag
424 424 14 0.00 14.4424 16.5056 10.316 # Ag
425 425 14 0.00 18.5688 16.5056 10.316 # Ag
426 426 14 0.00 22.6952 16.5056 10.316 # Ag
427 427 14 0.00 26.8216 16.5056 10.316 # Ag
428 428 14 0.00 2.0632 20.632 10.316 # Ag
429 429 14 0.00 6.1896 20.632 10.316 # Ag
430 430 14 0.00 10.316 20.632 10.316 # Ag
431 431 14 0.00 14.4424 20.632 10.316 # Ag
432 432 14 0.00 18.5688 20.632 10.316 # Ag
433 433 14 0.00 22.6952 20.632 10.316 # Ag
434 434 14 0.00 26.8216 20.632 10.316 # Ag
435 435 14 0.00 2.0632 24.7584 10.316 # Ag
436 436 14 0.00 6.1896 24.7584 10.316 # Ag
437 437 14 0.00 10.316 24.7584 10.316 # Ag
438 438 14 0.00 14.4424 24.7584 10.316 # Ag
439 439 14 0.00 18.5688 24.7584 10.316 # Ag
440 440 14 0.00 22.6952 24.7584 10.316 # Ag
441 441 14 0.00 26.8216 24.7584 10.316 # Ag
442 442 14 0.00 0.0 2.0632 2.0632 # Ag
443 443 14 0.00 4.1264 2.0632 2.0632 # Ag
444 444 14 0.00 8.2528 2.0632 2.0632 # Ag
445 445 14 0.00 12.3792 2.0632 2.0632 # Ag
446 446 14 0.00 16.5056 2.0632 2.0632 # Ag
447 447 14 0.00 20.632 2.0632 2.0632 # Ag
448 448 14 0.00 24.7584 2.0632 2.0632 # Ag
449 449 14 0.00 0.0 6.1896 2.0632 # Ag
450 450 14 0.00 4.1264 6.1896 2.0632 # Ag
451 451 14 0.00 8.2528 6.1896 2.0632 # Ag
452 452 14 0.00 12.3792 6.1896 2.0632 # Ag
453 453 14 0.00 16.5056 6.1896 2.0632 # Ag
454 454 14 0.00 20.632 6.1896 2.0632 # Ag
455 455 14 0.00 24.7584 6.1896 2.0632 # Ag
456 456 14 0.00 0.0 10.316 2.0632 # Ag
457 457 14 0.00 4.1264 10.316 2.0632 # Ag
458 458 14 0.00 8.2528 10.316 2.0632 # Ag
459 459 14 0.00 12.3792 10.316 2.0632 # Ag
460 460 14 0.00 16.5056 10.316 2.0632 # Ag
461 461 14 0.00 20.632 10.316 2.0632 # Ag
462 462 14 0.00 24.7584 10.316 2.0632 # Ag
463 463 14 0.00 0.0 14.4424 2.0632 # Ag
464 464 14 0.00 4.1264 14.4424 2.0632 # Ag
465 465 14 0.00 8.2528 14.4424 2.0632 # Ag
466 466 14 0.00 12.3792 14.4424 2.0632 # Ag
467 467 14 0.00 16.5056 14.4424 2.0632 # Ag
468 468 14 0.00 20.632 14.4424 2.0632 # Ag
469 469 14 0.00 24.7584 14.4424 2.0632 # Ag
470 470 14 0.00 0.0 18.5688 2.0632 # Ag
471 471 14 0.00 4.1264 18.5688 2.0632 # Ag
472 472 14 0.00 8.2528 18.5688 2.0632 # Ag
473 473 14 0.00 12.3792 18.5688 2.0632 # Ag
474 474 14 0.00 16.5056 18.5688 2.0632 # Ag
475 475 14 0.00 20.632 18.5688 2.0632 # Ag
476 476 14 0.00 24.7584 18.5688 2.0632 # Ag
477 477 14 0.00 0.0 22.6952 2.0632 # Ag
478 478 14 0.00 4.1264 22.6952 2.0632 # Ag
479 479 14 0.00 8.2528 22.6952 2.0632 # Ag
480 480 14 0.00 12.3792 22.6952 2.0632 # Ag
481 481 14 0.00 16.5056 22.6952 2.0632 # Ag
482 482 14 0.00 20.632 22.6952 2.0632 # Ag
483 483 14 0.00 24.7584 22.6952 2.0632 # Ag
484 484 14 0.00 0.0 26.8216 2.0632 # Ag
485 485 14 0.00 4.1264 26.8216 2.0632 # Ag
486 486 14 0.00 8.2528 26.8216 2.0632 # Ag
487 487 14 0.00 12.3792 26.8216 2.0632 # Ag
488 488 14 0.00 16.5056 26.8216 2.0632 # Ag
489 489 14 0.00 20.632 26.8216 2.0632 # Ag
490 490 14 0.00 24.7584 26.8216 2.0632 # Ag
491 491 14 0.00 0.0 2.0632 6.1896 # Ag
492 492 14 0.00 4.1264 2.0632 6.1896 # Ag
493 493 14 0.00 8.2528 2.0632 6.1896 # Ag
494 494 14 0.00 12.3792 2.0632 6.1896 # Ag
495 495 14 0.00 16.5056 2.0632 6.1896 # Ag
496 496 14 0.00 20.632 2.0632 6.1896 # Ag
497 497 14 0.00 24.7584 2.0632 6.1896 # Ag
498 498 14 0.00 0.0 6.1896 6.1896 # Ag
499 499 14 0.00 4.1264 6.1896 6.1896 # Ag
500 500 14 0.00 8.2528 6.1896 6.1896 # Ag
501 501 14 0.00 12.3792 6.1896 6.1896 # Ag
502 502 14 0.00 16.5056 6.1896 6.1896 # Ag
503 503 14 0.00 20.632 6.1896 6.1896 # Ag
504 504 14 0.00 24.7584 6.1896 6.1896 # Ag
505 505 14 0.00 0.0 10.316 6.1896 # Ag
506 506 14 0.00 4.1264 10.316 6.1896 # Ag
507 507 14 0.00 8.2528 10.316 6.1896 # Ag
508 508 14 0.00 12.3792 10.316 6.1896 # Ag
509 509 14 0.00 16.5056 10.316 6.1896 # Ag
510 510 14 0.00 20.632 10.316 6.1896 # Ag
511 511 14 0.00 24.7584 10.316 6.1896 # Ag
512 512 14 0.00 0.0 14.4424 6.1896 # Ag
513 513 14 0.00 4.1264 14.4424 6.1896 # Ag
514 514 14 0.00 8.2528 14.4424 6.1896 # Ag
515 515 14 0.00 12.3792 14.4424 6.1896 # Ag
516 516 14 0.00 16.5056 14.4424 6.1896 # Ag
517 517 14 0.00 20.632 14.4424 6.1896 # Ag
518 518 14 0.00 24.7584 14.4424 6.1896 # Ag
519 519 14 0.00 0.0 18.5688 6.1896 # Ag
520 520 14 0.00 4.1264 18.5688 6.1896 # Ag
521 521 14 0.00 8.2528 18.5688 6.1896 # Ag
522 522 14 0.00 12.3792 18.5688 6.1896 # Ag
523 523 14 0.00 16.5056 18.5688 6.1896 # Ag
524 524 14 0.00 20.632 18.5688 6.1896 # Ag
525 525 14 0.00 24.7584 18.5688 6.1896 # Ag
526 526 14 0.00 0.0 22.6952 6.1896 # Ag
527 527 14 0.00 4.1264 22.6952 6.1896 # Ag
528 528 14 0.00 8.2528 22.6952 6.1896 # Ag
529 529 14 0.00 12.3792 22.6952 6.1896 # Ag
530 530 14 0.00 16.5056 22.6952 6.1896 # Ag
531 531 14 0.00 20.632 22.6952 6.1896 # Ag
532 532 14 0.00 24.7584 22.6952 6.1896 # Ag
533 533 14 0.00 0.0 26.8216 6.1896 # Ag
534 534 14 0.00 4.1264 26.8216 6.1896 # Ag
535 535 14 0.00 8.2528 26.8216 6.1896 # Ag
536 536 14 0.00 12.3792 26.8216 6.1896 # Ag
537 537 14 0.00 16.5056 26.8216 6.1896 # Ag
538 538 14 0.00 20.632 26.8216 6.1896 # Ag
539 539 14 0.00 24.7584 26.8216 6.1896 # Ag
540 540 14 0.00 0.0 2.0632 10.316 # Ag
541 541 14 0.00 4.1264 2.0632 10.316 # Ag
542 542 14 0.00 8.2528 2.0632 10.316 # Ag
543 543 14 0.00 12.3792 2.0632 10.316 # Ag
544 544 14 0.00 16.5056 2.0632 10.316 # Ag
545 545 14 0.00 20.632 2.0632 10.316 # Ag
546 546 14 0.00 24.7584 2.0632 10.316 # Ag
547 547 14 0.00 0.0 6.1896 10.316 # Ag
548 548 14 0.00 4.1264 6.1896 10.316 # Ag
549 549 14 0.00 8.2528 6.1896 10.316 # Ag
550 550 14 0.00 12.3792 6.1896 10.316 # Ag
551 551 14 0.00 16.5056 6.1896 10.316 # Ag
552 552 14 0.00 20.632 6.1896 10.316 # Ag
553 553 14 0.00 24.7584 6.1896 10.316 # Ag
554 554 14 0.00 0.0 10.316 10.316 # Ag
555 555 14 0.00 4.1264 10.316 10.316 # Ag
556 556 14 0.00 8.2528 10.316 10.316 # Ag
557 557 14 0.00 12.3792 10.316 10.316 # Ag
558 558 14 0.00 16.5056 10.316 10.316 # Ag
559 559 14 0.00 20.632 10.316 10.316 # Ag
560 560 14 0.00 24.7584 10.316 10.316 # Ag
561 561 14 0.00 0.0 14.4424 10.316 # Ag
562 562 14 0.00 4.1264 14.4424 10.316 # Ag
563 563 14 0.00 8.2528 14.4424 10.316 # Ag
564 564 14 0.00 12.3792 14.4424 10.316 # Ag
565 565 14 0.00 16.5056 14.4424 10.316 # Ag
566 566 14 0.00 20.632 14.4424 10.316 # Ag
567 567 14 0.00 24.7584 14.4424 10.316 # Ag
568 568 14 0.00 0.0 18.5688 10.316 # Ag
569 569 14 0.00 4.1264 18.5688 10.316 # Ag
570 570 14 0.00 8.2528 18.5688 10.316 # Ag
571 571 14 0.00 12.3792 18.5688 10.316 # Ag
572 572 14 0.00 16.5056 18.5688 10.316 # Ag
573 573 14 0.00 20.632 18.5688 10.316 # Ag
574 574 14 0.00 24.7584 18.5688 10.316 # Ag
575 575 14 0.00 0.0 22.6952 10.316 # Ag
576 576 14 0.00 4.1264 22.6952 10.316 # Ag
577 577 14 0.00 8.2528 22.6952 10.316 # Ag
578 578 14 0.00 12.3792 22.6952 10.316 # Ag
579 579 14 0.00 16.5056 22.6952 10.316 # Ag
580 580 14 0.00 20.632 22.6952 10.316 # Ag
581 581 14 0.00 24.7584 22.6952 10.316 # Ag
582 582 14 0.00 0.0 26.8216 10.316 # Ag
583 583 14 0.00 4.1264 26.8216 10.316 # Ag
584 584 14 0.00 8.2528 26.8216 10.316 # Ag