LAMMPS Description

     4113  atoms
     3083  bonds
     5012  angles
     5870  dihedrals
     35  impropers

     22  atom types
     23  bond types
     43  angle types
     62  dihedral types
     2  improper types

  0.0 33.0112 xlo xhi
  0.0 33.0112 ylo yhi
  0.0 48.10 zlo zhi

Masses

	1      1.008  # HGA2
    2      1.008  # HGP1
    3     12.011  # CG2R53
    4     12.011  # CG3C52
    5     14.007  # NG2R53
    6    15.9994  # OG2D1
    7 1.008    # HCA2
    8 1.008    # HCP1
	9 12.011   # CC32A
	10 15.9994  # OC311
	11      1.008  # HRA2
	12      1.008  # HGA1
	13      1.008  # HGA2
	14      1.008  # HGA3
	15     12.011  # CG2R53
	16     12.011  # CG311
	17     12.011  # CG321
	18     12.011  # CG331
	19     12.011  # CG3C52
	20    14.007  # NG2R53
	21   15.9994  # OG2D1
    22 107.8682  # Ag

Bond Coeffs

    1   13.00902   1.53000  # CG2R53   CG3C52
    2   19.94716   1.38000  # CG2R53   NG2R53
	3   24.71714   1.23500  # CG2R53   OG2D1 
	4   8.45586    1.53000  # CG3C52   CG3C52  
	5   13.31256   1.10000  # CG3C52   HGA2
    6   16.04446   1.45000  # CG3C52   NG2R53
	7   20.38080   1.01500  # HGP1 NG2R53  
    8   9.64860   1.53000  # CC32A    CC32A
    9  13.39962   1.11100  # CC32A    HCA2 
	10  18.56000   1.42000  # CC32A    OC311
	11  23.63364   0.96000  # HCP1 	OC311    
	12   13.00902   1.530   # CG2R53   CG3C52 
	13   19.94716   1.380   # CG2R53   NG2R53 
	14   24.71714   1.235   # CG2R53   OG2D1  
	15   9.64836    1.538   # CG311    CG321  
	16   9.64836    1.538   # CG311    CG331  
	17   13.39929   1.111   # CG311    HGA1 
	18   13.87629   1.430   # CG311    NG2R53 
	19   13.39929   1.111   # CG321    HGA2 
	20   13.96301   1.111   # CG331    HGA3 
	21  8.45586    1.530   # CG3C52   CG3C52 
	22  13.31256   1.100   # CG3C52   HRA2 
	23  16.04446   1.450   # CG3C52   NG2R53 

Angle Coeffs

    1   3.03544  106.50000    0.00000    0.00000  # CG2R53   CG3C52   CG3C52
    2   2.51508  111.00000    0.00000    0.00000  # CG2R53   CG3C52   HGA2
	3   3.25226  111.00000    0.00000    0.00000  # CG2R53   NG2R53   CG3C52
	4   1.64781  119.50000    0.00000    0.00000  # CG2R53   NG2R53   HGP1   
	5   5.20361  105.50000    0.00000    0.00000  # CG3C52   CG2R53   NG2R53    
	6   2.81862  126.70000    0.00000    0.00000  # CG3C52   CG2R53   OG2D1 
    7   2.51508  109.50000    0.48394    2.56100  # CG3C52   CG3C52   CG3C52
	8   1.51772  111.40000    0.97698    2.17900  # CG3C52   CG3C52   HGA2
	9   3.90271  104.50000    0.00000    0.00000  # CG3C52   CG3C52   NG2R53   
	10  1.64781  116.00000    0.00000    0.00000  # CG3C52   NG2R53   HGP1   
	11  1.66949  106.80000    0.23416    1.80200  # HGA2 CG3C52   HGA2
    12  2.55844  111.00000    0.00000    0.00000  # HGA2 CG3C52   NG2R53  
	13  2.81862  127.80000    0.00000    0.00000  # NG2R53   CG2R53   OG2D1 
    14  1.14916  110.10000    0.97700    2.17900  # CC32A    CC32A    HCA2 
    15  3.28269  110.10000    0.00000    0.00000  # CC32A    CC32A    OC311
	16  2.16822  106.00000    0.00000    0.00000  # CC32A    OC311    HCP1 
	17  1.53944  109.00000    0.23417    1.80200  # HCA2 	  CC32A    HCA2     
	18  2.38505  108.89000    0.00000    0.00000  # HCA2     CC32A    OC311    
	19   3.03544	106.5  0.00000	0.000    # CG2R53   CG3C52   CG3C52
	20   2.51508	111.0  0.00000	0.000    # CG2R53   CG3C52   HRA2
	21   2.16817	120.0  0.00000	0.000    # CG2R53   NG2R53   CG311 
	22   3.25226	111.0  0.00000	0.000    # CG2R53   NG2R53   CG3C52
	23   2.53025	113.5  0.48394	2.561    # CG311    CG321    CG311 
	24   1.44964	110.1  0.97698	2.179    # CG311    CG321    HGA2
	25   1.44964	110.1  0.97698	2.179    # CG311    CG331    HGA3
	26   2.16817	116.0  0.00000	0.000    # CG311    NG2R53   CG3C52
	27   2.53025	113.5  0.48394	2.561    # CG321    CG311    CG321 
	28  2.31344	114.0  0.34691	2.561    # CG321    CG311    CG331 
	29  1.49604	110.1  0.97698	2.179    # CG321    CG311    HGA1
	30  3.03544	113.5  0.00000	0.000    # CG321    CG311    NG2R53
	31  1.49604	110.1  0.97698	2.179    # CG331    CG311    HGA1
	32  3.03544	113.5  0.00000	0.000    # CG331    CG311    NG2R53
	33  5.20361	105.5  0.00000	0.000    # CG3C52   CG2R53   NG2R53
	34  2.81862	126.7  0.00000	0.000    # CG3C52   CG2R53   OG2D1 
	35  2.51508	109.5  0.48394	2.561    # CG3C52   CG3C52   CG3C52
	36  1.51772	111.4  0.97698	2.179    # CG3C52   CG3C52   HRA2
	37  3.90271	104.5  0.00000	0.000    # CG3C52   CG3C52   NG2R53
	38  2.08144	108.0  0.00000	0.000    # HGA1 CG311    NG2R53  
	39  1.53940	109.0  0.23416	1.802    # HGA2 CG321    HGA2
	40  1.53940	108.4  0.23416	1.802    # HGA3 CG331    HGA3
	41  1.66949	106.8  0.23416	1.802    # HRA2 CG3C52   HRA2
	42  2.55844	111.0  0.00000	0.000    # HRA2 CG3C52   NG2R53  
	43  2.81862	127.8  0.00000	0.000    # NG2R53   CG2R53   OG2D1 

Dihedral Coeffs

    1   0.01474          3        180      0.000  # CG2R53   CG3C52   CG3C52   CG3C52
    2   0.00000          3        0        1.000  # CG2R53   CG3C52   CG3C52   HGA2
	3   0.10017          3        180      0.000  # CG2R53   NG2R53   CG3C52   CG3C52
	4   0.00000          3        0        1.000  # CG2R53   NG2R53   CG3C52   HGA2       
	5   0.01735          2        180      0.000  # CG3C52   CG2R53   NG2R53   CG3C52       
	6   0.05507          2        180      1.000  # CG3C52   CG2R53   NG2R53   HGP1   
    7   0.04553          3        180      0.000  # CG3C52   CG3C52   CG2R53   NG2R53
	8   0.00347          3        0        1.000  # CG3C52   CG3C52   CG2R53   OG2D1 
	9   0.00824          3        0        1.000  # CG3C52   CG3C52   CG3C52   HGA2
	10  0.09236          3        0        0.000  # CG3C52   CG3C52   CG3C52   NG2R53
	11  0.03296          3        0        1.000  # CG3C52   CG3C52   NG2R53   HGP1
    12  0.11231          2        180      1.000  # CG3C52   NG2R53   CG2R53   OG2D1 
	13  0.00000          3        180      1.000  # HGA2 CG3C52   CG2R53   NG2R53  
	14  0.00000          3        0        1.000  # HGA2 CG3C52   CG2R53   OG2D1          
	15  0.00824          3        0        1.000  # HGA2 CG3C52   CG3C52   HGA2       
	16  0.00000          3        180      1.000  # HGA2 CG3C52   CG3C52   NG2R53     
    17  0.00000          3        180      1.000  # HGA2 CG3C52   NG2R53   HGP1
	18  0.03729          2        180      1.000  # HGP1 NG2R53   CG2R53   OG2D1   
    19  0.01735          1        180      1.000  # CC32A    CC32A    OC311    HCP1 
    20  0.00043          2          0      0.000  # CC32A    CC32A    OC311    HCP1 
	21  0.01127          3          0      0.000  # CC32A    CC32A    OC311    HCP1 
	22  0.00824          3          0      1.000  # HCA2     CC32A    CC32A    HCA2         
	23  0.00607          3          0      1.000  # HCA2     CC32A    CC32A    OC311        
	24  0.00781          3          0      1.000  # HCA2     CC32A    OC311    HCP1     
    25  0.01431          1          0      1.000  # OC311    CC32A    CC32A    OC311
	26  0.09410          2          0      0.000  # OC311    CC32A    CC32A    OC311
	27  0.01951          3          0      0.000  # OC311    CC32A    CC32A    OC311
	28   0.01474	3	180	 0   # CG2R53   CG3C52   CG3C52   CG3C52  
	29   0.00000	3	0    1   # CG2R53   CG3C52   CG3C52   HRA2  
	30   0.03903	1	0    1   # CG2R53   NG2R53   CG311    CG321   
	31   0.03903	1	0    1   # CG2R53   NG2R53   CG311    CG331   
	32   0.00000	1	0    1   # CG2R53   NG2R53   CG311    HGA1  
	33   0.10017	3	180	 0   # CG2R53   NG2R53   CG3C52   CG3C52  
	34   0.00000	3	0    1   # CG2R53   NG2R53   CG3C52   HRA2  
	35   0.00867	3	0    1   # CG311    CG321    CG311    CG321   
	36   0.00867	3	0    1   # CG311    CG321    CG311    CG331   
	37  0.00846	3	0    1   # CG311    CG321    CG311    HGA1  
	38  0.00867	3	0    1   # CG311    CG321    CG311    NG2R53  
	39  0.04857	2	180	 1   # CG311    NG2R53   CG2R53   CG3C52  
	40  0.10841	2	180	 1   # CG311    NG2R53   CG2R53   OG2D1   
	41  0.02905	3	0    1   # CG311    NG2R53   CG3C52   CG3C52  
	42  0.00000	3	0    1   # CG311    NG2R53   CG3C52   HRA2  
	43  0.00867	3	0    1   # CG321    CG311    CG321    HGA2  
	44  0.00867	3	0    1   # CG321    CG311    CG331    HGA3  
	45  0.00000	1	0    1   # CG321    CG311    NG2R53   CG3C52  
	46  0.00867	3	0    1   # CG331    CG311    CG321    HGA2  
	47  0.00000	1	0    1   # CG331    CG311    NG2R53   CG3C52  
	48  0.01735	2	180	 0   # CG3C52   CG2R53   NG2R53   CG3C52  
	49  0.04553	3	180	 0   # CG3C52   CG3C52   CG2R53   NG2R53  
	50  0.00347	3	0    1   # CG3C52   CG3C52   CG2R53   OG2D1   
	51  0.00824	3	0    1   # CG3C52   CG3C52   CG3C52   HRA2  
	52  0.09236	3	0    0   # CG3C52   CG3C52   CG3C52   NG2R53  
	53  0.11231	2	180	 1   # CG3C52   NG2R53   CG2R53   OG2D1   
	54  0.00000	1	0    1   # CG3C52   NG2R53   CG311    HGA1  
	55  0.00846	3	0    1   # HGA1 CG311    CG321    HGA2  
	56  0.00846	3	0    1   # HGA1 CG311    CG331    HGA3  
	57  0.00867	3	0    1   # HGA2 CG321    CG311    NG2R53    
	58  0.00867	3	0    1   # HGA3 CG331    CG311    NG2R53    
	59  0.00000	3	180	 1   # HRA2 CG3C52   CG2R53   NG2R53    
	60  0.00000	3	0  	 1   # HRA2 CG3C52   CG2R53   OG2D1     
	61  0.00824	3	0  	 1   # HRA2 CG3C52   CG3C52   HRA2  
	62  0.00000	3	180	 1   # HRA2 CG3C52   CG3C52   NG2R53    

Improper Coeffs

	1   3.90271   0.00000  # CG2R53   CG3C52   NG2R53   OG2D1
	2   3.90271	0.00000	 # CG2R53   CG3C52   NG2R53   OG2D1

Atoms # full

1 1 22 0.00 0.0 0.0 0.0 # Ag
2 2 22 0.00 4.1264 0.0 0.0 # Ag
3 3 22 0.00 8.2528 0.0 0.0 # Ag
4 4 22 0.00 12.3792 0.0 0.0 # Ag
5 5 22 0.00 16.5056 0.0 0.0 # Ag
6 6 22 0.00 20.632 0.0 0.0 # Ag
7 7 22 0.00 24.7584 0.0 0.0 # Ag
8 8 22 0.00 28.8848 0.0 0.0 # Ag
9 9 22 0.00 0.0 4.1264 0.0 # Ag
10 10 22 0.00 4.1264 4.1264 0.0 # Ag
11 11 22 0.00 8.2528 4.1264 0.0 # Ag
12 12 22 0.00 12.3792 4.1264 0.0 # Ag
13 13 22 0.00 16.5056 4.1264 0.0 # Ag
14 14 22 0.00 20.632 4.1264 0.0 # Ag
15 15 22 0.00 24.7584 4.1264 0.0 # Ag
16 16 22 0.00 28.8848 4.1264 0.0 # Ag
17 17 22 0.00 0.0 8.2528 0.0 # Ag
18 18 22 0.00 4.1264 8.2528 0.0 # Ag
19 19 22 0.00 8.2528 8.2528 0.0 # Ag
20 20 22 0.00 12.3792 8.2528 0.0 # Ag
21 21 22 0.00 16.5056 8.2528 0.0 # Ag
22 22 22 0.00 20.632 8.2528 0.0 # Ag
23 23 22 0.00 24.7584 8.2528 0.0 # Ag
24 24 22 0.00 28.8848 8.2528 0.0 # Ag
25 25 22 0.00 0.0 12.3792 0.0 # Ag
26 26 22 0.00 4.1264 12.3792 0.0 # Ag
27 27 22 0.00 8.2528 12.3792 0.0 # Ag
28 28 22 0.00 12.3792 12.3792 0.0 # Ag
29 29 22 0.00 16.5056 12.3792 0.0 # Ag
30 30 22 0.00 20.632 12.3792 0.0 # Ag
31 31 22 0.00 24.7584 12.3792 0.0 # Ag
32 32 22 0.00 28.8848 12.3792 0.0 # Ag
33 33 22 0.00 0.0 16.5056 0.0 # Ag
34 34 22 0.00 4.1264 16.5056 0.0 # Ag
35 35 22 0.00 8.2528 16.5056 0.0 # Ag
36 36 22 0.00 12.3792 16.5056 0.0 # Ag
37 37 22 0.00 16.5056 16.5056 0.0 # Ag
38 38 22 0.00 20.632 16.5056 0.0 # Ag
39 39 22 0.00 24.7584 16.5056 0.0 # Ag
40 40 22 0.00 28.8848 16.5056 0.0 # Ag
41 41 22 0.00 0.0 20.632 0.0 # Ag
42 42 22 0.00 4.1264 20.632 0.0 # Ag
43 43 22 0.00 8.2528 20.632 0.0 # Ag
44 44 22 0.00 12.3792 20.632 0.0 # Ag
45 45 22 0.00 16.5056 20.632 0.0 # Ag
46 46 22 0.00 20.632 20.632 0.0 # Ag
47 47 22 0.00 24.7584 20.632 0.0 # Ag
48 48 22 0.00 28.8848 20.632 0.0 # Ag
49 49 22 0.00 0.0 24.7584 0.0 # Ag
50 50 22 0.00 4.1264 24.7584 0.0 # Ag
51 51 22 0.00 8.2528 24.7584 0.0 # Ag
52 52 22 0.00 12.3792 24.7584 0.0 # Ag
53 53 22 0.00 16.5056 24.7584 0.0 # Ag
54 54 22 0.00 20.632 24.7584 0.0 # Ag
55 55 22 0.00 24.7584 24.7584 0.0 # Ag
56 56 22 0.00 28.8848 24.7584 0.0 # Ag
57 57 22 0.00 0.0 28.8848 0.0 # Ag
58 58 22 0.00 4.1264 28.8848 0.0 # Ag
59 59 22 0.00 8.2528 28.8848 0.0 # Ag
60 60 22 0.00 12.3792 28.8848 0.0 # Ag
61 61 22 0.00 16.5056 28.8848 0.0 # Ag
62 62 22 0.00 20.632 28.8848 0.0 # Ag
63 63 22 0.00 24.7584 28.8848 0.0 # Ag
64 64 22 0.00 28.8848 28.8848 0.0 # Ag
65 65 22 0.00 0.0 0.0 4.1264 # Ag
66 66 22 0.00 4.1264 0.0 4.1264 # Ag
67 67 22 0.00 8.2528 0.0 4.1264 # Ag
68 68 22 0.00 12.3792 0.0 4.1264 # Ag
69 69 22 0.00 16.5056 0.0 4.1264 # Ag
70 70 22 0.00 20.632 0.0 4.1264 # Ag
71 71 22 0.00 24.7584 0.0 4.1264 # Ag
72 72 22 0.00 28.8848 0.0 4.1264 # Ag
73 73 22 0.00 0.0 4.1264 4.1264 # Ag
74 74 22 0.00 4.1264 4.1264 4.1264 # Ag
75 75 22 0.00 8.2528 4.1264 4.1264 # Ag
76 76 22 0.00 12.3792 4.1264 4.1264 # Ag
77 77 22 0.00 16.5056 4.1264 4.1264 # Ag
78 78 22 0.00 20.632 4.1264 4.1264 # Ag
79 79 22 0.00 24.7584 4.1264 4.1264 # Ag
80 80 22 0.00 28.8848 4.1264 4.1264 # Ag
81 81 22 0.00 0.0 8.2528 4.1264 # Ag
82 82 22 0.00 4.1264 8.2528 4.1264 # Ag
83 83 22 0.00 8.2528 8.2528 4.1264 # Ag
84 84 22 0.00 12.3792 8.2528 4.1264 # Ag
85 85 22 0.00 16.5056 8.2528 4.1264 # Ag
86 86 22 0.00 20.632 8.2528 4.1264 # Ag
87 87 22 0.00 24.7584 8.2528 4.1264 # Ag
88 88 22 0.00 28.8848 8.2528 4.1264 # Ag
89 89 22 0.00 0.0 12.3792 4.1264 # Ag
90 90 22 0.00 4.1264 12.3792 4.1264 # Ag
91 91 22 0.00 8.2528 12.3792 4.1264 # Ag
92 92 22 0.00 12.3792 12.3792 4.1264 # Ag
93 93 22 0.00 16.5056 12.3792 4.1264 # Ag
94 94 22 0.00 20.632 12.3792 4.1264 # Ag
95 95 22 0.00 24.7584 12.3792 4.1264 # Ag
96 96 22 0.00 28.8848 12.3792 4.1264 # Ag
97 97 22 0.00 0.0 16.5056 4.1264 # Ag
98 98 22 0.00 4.1264 16.5056 4.1264 # Ag
99 99 22 0.00 8.2528 16.5056 4.1264 # Ag
100 100 22 0.00 12.3792 16.5056 4.1264 # Ag
101 101 22 0.00 16.5056 16.5056 4.1264 # Ag
102 102 22 0.00 20.632 16.5056 4.1264 # Ag
103 103 22 0.00 24.7584 16.5056 4.1264 # Ag
104 104 22 0.00 28.8848 16.5056 4.1264 # Ag
105 105 22 0.00 0.0 20.632 4.1264 # Ag
106 106 22 0.00 4.1264 20.632 4.1264 # Ag
107 107 22 0.00 8.2528 20.632 4.1264 # Ag
108 108 22 0.00 12.3792 20.632 4.1264 # Ag
109 109 22 0.00 16.5056 20.632 4.1264 # Ag
110 110 22 0.00 20.632 20.632 4.1264 # Ag
111 111 22 0.00 24.7584 20.632 4.1264 # Ag
112 112 22 0.00 28.8848 20.632 4.1264 # Ag
113 113 22 0.00 0.0 24.7584 4.1264 # Ag
114 114 22 0.00 4.1264 24.7584 4.1264 # Ag
115 115 22 0.00 8.2528 24.7584 4.1264 # Ag
116 116 22 0.00 12.3792 24.7584 4.1264 # Ag
117 117 22 0.00 16.5056 24.7584 4.1264 # Ag
118 118 22 0.00 20.632 24.7584 4.1264 # Ag
119 119 22 0.00 24.7584 24.7584 4.1264 # Ag
120 120 22 0.00 28.8848 24.7584 4.1264 # Ag
121 121 22 0.00 0.0 28.8848 4.1264 # Ag
122 122 22 0.00 4.1264 28.8848 4.1264 # Ag
123 123 22 0.00 8.2528 28.8848 4.1264 # Ag
124 124 22 0.00 12.3792 28.8848 4.1264 # Ag
125 125 22 0.00 16.5056 28.8848 4.1264 # Ag
126 126 22 0.00 20.632 28.8848 4.1264 # Ag
127 127 22 0.00 24.7584 28.8848 4.1264 # Ag
128 128 22 0.00 28.8848 28.8848 4.1264 # Ag
129 129 22 0.00 0.0 0.0 8.2528 # Ag
130 130 22 0.00 4.1264 0.0 8.2528 # Ag
131 131 22 0.00 8.2528 0.0 8.2528 # Ag
132 132 22 0.00 12.3792 0.0 8.2528 # Ag
133 133 22 0.00 16.5056 0.0 8.2528 # Ag
134 134 22 0.00 20.632 0.0 8.2528 # Ag
135 135 22 0.00 24.7584 0.0 8.2528 # Ag
136 136 22 0.00 28.8848 0.0 8.2528 # Ag
137 137 22 0.00 0.0 4.1264 8.2528 # Ag
138 138 22 0.00 4.1264 4.1264 8.2528 # Ag
139 139 22 0.00 8.2528 4.1264 8.2528 # Ag
140 140 22 0.00 12.3792 4.1264 8.2528 # Ag
141 141 22 0.00 16.5056 4.1264 8.2528 # Ag
142 142 22 0.00 20.632 4.1264 8.2528 # Ag
143 143 22 0.00 24.7584 4.1264 8.2528 # Ag
144 144 22 0.00 28.8848 4.1264 8.2528 # Ag
145 145 22 0.00 0.0 8.2528 8.2528 # Ag
146 146 22 0.00 4.1264 8.2528 8.2528 # Ag
147 147 22 0.00 8.2528 8.2528 8.2528 # Ag
148 148 22 0.00 12.3792 8.2528 8.2528 # Ag
149 149 22 0.00 16.5056 8.2528 8.2528 # Ag
150 150 22 0.00 20.632 8.2528 8.2528 # Ag
151 151 22 0.00 24.7584 8.2528 8.2528 # Ag
152 152 22 0.00 28.8848 8.2528 8.2528 # Ag
153 153 22 0.00 0.0 12.3792 8.2528 # Ag
154 154 22 0.00 4.1264 12.3792 8.2528 # Ag
155 155 22 0.00 8.2528 12.3792 8.2528 # Ag
156 156 22 0.00 12.3792 12.3792 8.2528 # Ag
157 157 22 0.00 16.5056 12.3792 8.2528 # Ag
158 158 22 0.00 20.632 12.3792 8.2528 # Ag
159 159 22 0.00 24.7584 12.3792 8.2528 # Ag
160 160 22 0.00 28.8848 12.3792 8.2528 # Ag
161 161 22 0.00 0.0 16.5056 8.2528 # Ag
162 162 22 0.00 4.1264 16.5056 8.2528 # Ag
163 163 22 0.00 8.2528 16.5056 8.2528 # Ag
164 164 22 0.00 12.3792 16.5056 8.2528 # Ag
165 165 22 0.00 16.5056 16.5056 8.2528 # Ag
166 166 22 0.00 20.632 16.5056 8.2528 # Ag
167 167 22 0.00 24.7584 16.5056 8.2528 # Ag
168 168 22 0.00 28.8848 16.5056 8.2528 # Ag
169 169 22 0.00 0.0 20.632 8.2528 # Ag
170 170 22 0.00 4.1264 20.632 8.2528 # Ag
171 171 22 0.00 8.2528 20.632 8.2528 # Ag
172 172 22 0.00 12.3792 20.632 8.2528 # Ag
173 173 22 0.00 16.5056 20.632 8.2528 # Ag
174 174 22 0.00 20.632 20.632 8.2528 # Ag
175 175 22 0.00 24.7584 20.632 8.2528 # Ag
176 176 22 0.00 28.8848 20.632 8.2528 # Ag
177 177 22 0.00 0.0 24.7584 8.2528 # Ag
178 178 22 0.00 4.1264 24.7584 8.2528 # Ag
179 179 22 0.00 8.2528 24.7584 8.2528 # Ag
180 180 22 0.00 12.3792 24.7584 8.2528 # Ag
181 181 22 0.00 16.5056 24.7584 8.2528 # Ag
182 182 22 0.00 20.632 24.7584 8.2528 # Ag
183 183 22 0.00 24.7584 24.7584 8.2528 # Ag
184 184 22 0.00 28.8848 24.7584 8.2528 # Ag
185 185 22 0.00 0.0 28.8848 8.2528 # Ag
186 186 22 0.00 4.1264 28.8848 8.2528 # Ag
187 187 22 0.00 8.2528 28.8848 8.2528 # Ag
188 188 22 0.00 12.3792 28.8848 8.2528 # Ag
189 189 22 0.00 16.5056 28.8848 8.2528 # Ag
190 190 22 0.00 20.632 28.8848 8.2528 # Ag
191 191 22 0.00 24.7584 28.8848 8.2528 # Ag
192 192 22 0.00 28.8848 28.8848 8.2528 # Ag
193 193 22 0.00 2.0632 2.0632 0.0 # Ag
194 194 22 0.00 6.1896 2.0632 0.0 # Ag
195 195 22 0.00 10.316 2.0632 0.0 # Ag
196 196 22 0.00 14.4424 2.0632 0.0 # Ag
197 197 22 0.00 18.5688 2.0632 0.0 # Ag
198 198 22 0.00 22.6952 2.0632 0.0 # Ag
199 199 22 0.00 26.8216 2.0632 0.0 # Ag
200 200 22 0.00 30.948 2.0632 0.0 # Ag
201 201 22 0.00 2.0632 6.1896 0.0 # Ag
202 202 22 0.00 6.1896 6.1896 0.0 # Ag
203 203 22 0.00 10.316 6.1896 0.0 # Ag
204 204 22 0.00 14.4424 6.1896 0.0 # Ag
205 205 22 0.00 18.5688 6.1896 0.0 # Ag
206 206 22 0.00 22.6952 6.1896 0.0 # Ag
207 207 22 0.00 26.8216 6.1896 0.0 # Ag
208 208 22 0.00 30.948 6.1896 0.0 # Ag
209 209 22 0.00 2.0632 10.316 0.0 # Ag
210 210 22 0.00 6.1896 10.316 0.0 # Ag
211 211 22 0.00 10.316 10.316 0.0 # Ag
212 212 22 0.00 14.4424 10.316 0.0 # Ag
213 213 22 0.00 18.5688 10.316 0.0 # Ag
214 214 22 0.00 22.6952 10.316 0.0 # Ag
215 215 22 0.00 26.8216 10.316 0.0 # Ag
216 216 22 0.00 30.948 10.316 0.0 # Ag
217 217 22 0.00 2.0632 14.4424 0.0 # Ag
218 218 22 0.00 6.1896 14.4424 0.0 # Ag
219 219 22 0.00 10.316 14.4424 0.0 # Ag
220 220 22 0.00 14.4424 14.4424 0.0 # Ag
221 221 22 0.00 18.5688 14.4424 0.0 # Ag
222 222 22 0.00 22.6952 14.4424 0.0 # Ag
223 223 22 0.00 26.8216 14.4424 0.0 # Ag
224 224 22 0.00 30.948 14.4424 0.0 # Ag
225 225 22 0.00 2.0632 18.5688 0.0 # Ag
226 226 22 0.00 6.1896 18.5688 0.0 # Ag
227 227 22 0.00 10.316 18.5688 0.0 # Ag
228 228 22 0.00 14.4424 18.5688 0.0 # Ag
229 229 22 0.00 18.5688 18.5688 0.0 # Ag
230 230 22 0.00 22.6952 18.5688 0.0 # Ag
231 231 22 0.00 26.8216 18.5688 0.0 # Ag
232 232 22 0.00 30.948 18.5688 0.0 # Ag
233 233 22 0.00 2.0632 22.6952 0.0 # Ag
234 234 22 0.00 6.1896 22.6952 0.0 # Ag
235 235 22 0.00 10.316 22.6952 0.0 # Ag
236 236 22 0.00 14.4424 22.6952 0.0 # Ag
237 237 22 0.00 18.5688 22.6952 0.0 # Ag
238 238 22 0.00 22.6952 22.6952 0.0 # Ag
239 239 22 0.00 26.8216 22.6952 0.0 # Ag
240 240 22 0.00 30.948 22.6952 0.0 # Ag
241 241 22 0.00 2.0632 26.8216 0.0 # Ag
242 242 22 0.00 6.1896 26.8216 0.0 # Ag
243 243 22 0.00 10.316 26.8216 0.0 # Ag
244 244 22 0.00 14.4424 26.8216 0.0 # Ag
245 245 22 0.00 18.5688 26.8216 0.0 # Ag
246 246 22 0.00 22.6952 26.8216 0.0 # Ag
247 247 22 0.00 26.8216 26.8216 0.0 # Ag
248 248 22 0.00 30.948 26.8216 0.0 # Ag
249 249 22 0.00 2.0632 30.948 0.0 # Ag
250 250 22 0.00 6.1896 30.948 0.0 # Ag
251 251 22 0.00 10.316 30.948 0.0 # Ag
252 252 22 0.00 14.4424 30.948 0.0 # Ag
253 253 22 0.00 18.5688 30.948 0.0 # Ag
254 254 22 0.00 22.6952 30.948 0.0 # Ag
255 255 22 0.00 26.8216 30.948 0.0 # Ag
256 256 22 0.00 30.948 30.948 0.0 # Ag
257 257 22 0.00 2.0632 2.0632 4.1264 # Ag
258 258 22 0.00 6.1896 2.0632 4.1264 # Ag
259 259 22 0.00 10.316 2.0632 4.1264 # Ag
260 260 22 0.00 14.4424 2.0632 4.1264 # Ag
261 261 22 0.00 18.5688 2.0632 4.1264 # Ag
262 262 22 0.00 22.6952 2.0632 4.1264 # Ag
263 263 22 0.00 26.8216 2.0632 4.1264 # Ag
264 264 22 0.00 30.948 2.0632 4.1264 # Ag
265 265 22 0.00 2.0632 6.1896 4.1264 # Ag
266 266 22 0.00 6.1896 6.1896 4.1264 # Ag
267 267 22 0.00 10.316 6.1896 4.1264 # Ag
268 268 22 0.00 14.4424 6.1896 4.1264 # Ag
269 269 22 0.00 18.5688 6.1896 4.1264 # Ag
270 270 22 0.00 22.6952 6.1896 4.1264 # Ag
271 271 22 0.00 26.8216 6.1896 4.1264 # Ag
272 272 22 0.00 30.948 6.1896 4.1264 # Ag
273 273 22 0.00 2.0632 10.316 4.1264 # Ag
274 274 22 0.00 6.1896 10.316 4.1264 # Ag
275 275 22 0.00 10.316 10.316 4.1264 # Ag
276 276 22 0.00 14.4424 10.316 4.1264 # Ag
277 277 22 0.00 18.5688 10.316 4.1264 # Ag
278 278 22 0.00 22.6952 10.316 4.1264 # Ag
279 279 22 0.00 26.8216 10.316 4.1264 # Ag
280 280 22 0.00 30.948 10.316 4.1264 # Ag
281 281 22 0.00 2.0632 14.4424 4.1264 # Ag
282 282 22 0.00 6.1896 14.4424 4.1264 # Ag
283 283 22 0.00 10.316 14.4424 4.1264 # Ag
284 284 22 0.00 14.4424 14.4424 4.1264 # Ag
285 285 22 0.00 18.5688 14.4424 4.1264 # Ag
286 286 22 0.00 22.6952 14.4424 4.1264 # Ag
287 287 22 0.00 26.8216 14.4424 4.1264 # Ag
288 288 22 0.00 30.948 14.4424 4.1264 # Ag
289 289 22 0.00 2.0632 18.5688 4.1264 # Ag
290 290 22 0.00 6.1896 18.5688 4.1264 # Ag
291 291 22 0.00 10.316 18.5688 4.1264 # Ag
292 292 22 0.00 14.4424 18.5688 4.1264 # Ag
293 293 22 0.00 18.5688 18.5688 4.1264 # Ag
294 294 22 0.00 22.6952 18.5688 4.1264 # Ag
295 295 22 0.00 26.8216 18.5688 4.1264 # Ag
296 296 22 0.00 30.948 18.5688 4.1264 # Ag
297 297 22 0.00 2.0632 22.6952 4.1264 # Ag
298 298 22 0.00 6.1896 22.6952 4.1264 # Ag
299 299 22 0.00 10.316 22.6952 4.1264 # Ag
300 300 22 0.00 14.4424 22.6952 4.1264 # Ag
301 301 22 0.00 18.5688 22.6952 4.1264 # Ag
302 302 22 0.00 22.6952 22.6952 4.1264 # Ag
303 303 22 0.00 26.8216 22.6952 4.1264 # Ag
304 304 22 0.00 30.948 22.6952 4.1264 # Ag
305 305 22 0.00 2.0632 26.8216 4.1264 # Ag
306 306 22 0.00 6.1896 26.8216 4.1264 # Ag
307 307 22 0.00 10.316 26.8216 4.1264 # Ag
308 308 22 0.00 14.4424 26.8216 4.1264 # Ag
309 309 22 0.00 18.5688 26.8216 4.1264 # Ag
310 310 22 0.00 22.6952 26.8216 4.1264 # Ag
311 311 22 0.00 26.8216 26.8216 4.1264 # Ag
312 312 22 0.00 30.948 26.8216 4.1264 # Ag
313 313 22 0.00 2.0632 30.948 4.1264 # Ag
314 314 22 0.00 6.1896 30.948 4.1264 # Ag
315 315 22 0.00 10.316 30.948 4.1264 # Ag
316 316 22 0.00 14.4424 30.948 4.1264 # Ag
317 317 22 0.00 18.5688 30.948 4.1264 # Ag
318 318 22 0.00 22.6952 30.948 4.1264 # Ag
319 319 22 0.00 26.8216 30.948 4.1264 # Ag
320 320 22 0.00 30.948 30.948 4.1264 # Ag
321 321 22 0.00 2.0632 2.0632 8.2528 # Ag
322 322 22 0.00 6.1896 2.0632 8.2528 # Ag
323 323 22 0.00 10.316 2.0632 8.2528 # Ag
324 324 22 0.00 14.4424 2.0632 8.2528 # Ag
325 325 22 0.00 18.5688 2.0632 8.2528 # Ag
326 326 22 0.00 22.6952 2.0632 8.2528 # Ag
327 327 22 0.00 26.8216 2.0632 8.2528 # Ag
328 328 22 0.00 30.948 2.0632 8.2528 # Ag
329 329 22 0.00 2.0632 6.1896 8.2528 # Ag
330 330 22 0.00 6.1896 6.1896 8.2528 # Ag
331 331 22 0.00 10.316 6.1896 8.2528 # Ag
332 332 22 0.00 14.4424 6.1896 8.2528 # Ag
333 333 22 0.00 18.5688 6.1896 8.2528 # Ag
334 334 22 0.00 22.6952 6.1896 8.2528 # Ag
335 335 22 0.00 26.8216 6.1896 8.2528 # Ag
336 336 22 0.00 30.948 6.1896 8.2528 # Ag
337 337 22 0.00 2.0632 10.316 8.2528 # Ag
338 338 22 0.00 6.1896 10.316 8.2528 # Ag
339 339 22 0.00 10.316 10.316 8.2528 # Ag
340 340 22 0.00 14.4424 10.316 8.2528 # Ag
341 341 22 0.00 18.5688 10.316 8.2528 # Ag
342 342 22 0.00 22.6952 10.316 8.2528 # Ag
343 343 22 0.00 26.8216 10.316 8.2528 # Ag
344 344 22 0.00 30.948 10.316 8.2528 # Ag
345 345 22 0.00 2.0632 14.4424 8.2528 # Ag
346 346 22 0.00 6.1896 14.4424 8.2528 # Ag
347 347 22 0.00 10.316 14.4424 8.2528 # Ag
348 348 22 0.00 14.4424 14.4424 8.2528 # Ag
349 349 22 0.00 18.5688 14.4424 8.2528 # Ag
350 350 22 0.00 22.6952 14.4424 8.2528 # Ag
351 351 22 0.00 26.8216 14.4424 8.2528 # Ag
352 352 22 0.00 30.948 14.4424 8.2528 # Ag
353 353 22 0.00 2.0632 18.5688 8.2528 # Ag
354 354 22 0.00 6.1896 18.5688 8.2528 # Ag
355 355 22 0.00 10.316 18.5688 8.2528 # Ag
356 356 22 0.00 14.4424 18.5688 8.2528 # Ag
357 357 22 0.00 18.5688 18.5688 8.2528 # Ag
358 358 22 0.00 22.6952 18.5688 8.2528 # Ag
359 359 22 0.00 26.8216 18.5688 8.2528 # Ag
360 360 22 0.00 30.948 18.5688 8.2528 # Ag
361 361 22 0.00 2.0632 22.6952 8.2528 # Ag
362 362 22 0.00 6.1896 22.6952 8.2528 # Ag
363 363 22 0.00 10.316 22.6952 8.2528 # Ag
364 364 22 0.00 14.4424 22.6952 8.2528 # Ag
365 365 22 0.00 18.5688 22.6952 8.2528 # Ag
366 366 22 0.00 22.6952 22.6952 8.2528 # Ag
367 367 22 0.00 26.8216 22.6952 8.2528 # Ag
368 368 22 0.00 30.948 22.6952 8.2528 # Ag
369 369 22 0.00 2.0632 26.8216 8.2528 # Ag
370 370 22 0.00 6.1896 26.8216 8.2528 # Ag
371 371 22 0.00 10.316 26.8216 8.2528 # Ag
372 372 22 0.00 14.4424 26.8216 8.2528 # Ag
373 373 22 0.00 18.5688 26.8216 8.2528 # Ag
374 374 22 0.00 22.6952 26.8216 8.2528 # Ag
375 375 22 0.00 26.8216 26.8216 8.2528 # Ag
376 376 22 0.00 30.948 26.8216 8.2528 # Ag
377 377 22 0.00 2.0632 30.948 8.2528 # Ag
378 378 22 0.00 6.1896 30.948 8.2528 # Ag
379 379 22 0.00 10.316 30.948 8.2528 # Ag
380 380 22 0.00 14.4424 30.948 8.2528 # Ag
381 381 22 0.00 18.5688 30.948 8.2528 # Ag
382 382 22 0.00 22.6952 30.948 8.2528 # Ag
383 383 22 0.00 26.8216 30.948 8.2528 # Ag
384 384 22 0.00 30.948 30.948 8.2528 # Ag
385 385 22 0.00 2.0632 0.0 2.0632 # Ag
386 386 22 0.00 6.1896 0.0 2.0632 # Ag
387 387 22 0.00 10.316 0.0 2.0632 # Ag
388 388 22 0.00 14.4424 0.0 2.0632 # Ag
389 389 22 0.00 18.5688 0.0 2.0632 # Ag
390 390 22 0.00 22.6952 0.0 2.0632 # Ag
391 391 22 0.00 26.8216 0.0 2.0632 # Ag
392 392 22 0.00 30.948 0.0 2.0632 # Ag
393 393 22 0.00 2.0632 4.1264 2.0632 # Ag
394 394 22 0.00 6.1896 4.1264 2.0632 # Ag
395 395 22 0.00 10.316 4.1264 2.0632 # Ag
396 396 22 0.00 14.4424 4.1264 2.0632 # Ag
397 397 22 0.00 18.5688 4.1264 2.0632 # Ag
398 398 22 0.00 22.6952 4.1264 2.0632 # Ag
399 399 22 0.00 26.8216 4.1264 2.0632 # Ag
400 400 22 0.00 30.948 4.1264 2.0632 # Ag
401 401 22 0.00 2.0632 8.2528 2.0632 # Ag
402 402 22 0.00 6.1896 8.2528 2.0632 # Ag
403 403 22 0.00 10.316 8.2528 2.0632 # Ag
404 404 22 0.00 14.4424 8.2528 2.0632 # Ag
405 405 22 0.00 18.5688 8.2528 2.0632 # Ag
406 406 22 0.00 22.6952 8.2528 2.0632 # Ag
407 407 22 0.00 26.8216 8.2528 2.0632 # Ag
408 408 22 0.00 30.948 8.2528 2.0632 # Ag
409 409 22 0.00 2.0632 12.3792 2.0632 # Ag
410 410 22 0.00 6.1896 12.3792 2.0632 # Ag
411 411 22 0.00 10.316 12.3792 2.0632 # Ag
412 412 22 0.00 14.4424 12.3792 2.0632 # Ag
413 413 22 0.00 18.5688 12.3792 2.0632 # Ag
414 414 22 0.00 22.6952 12.3792 2.0632 # Ag
415 415 22 0.00 26.8216 12.3792 2.0632 # Ag
416 416 22 0.00 30.948 12.3792 2.0632 # Ag
417 417 22 0.00 2.0632 16.5056 2.0632 # Ag
418 418 22 0.00 6.1896 16.5056 2.0632 # Ag
419 419 22 0.00 10.316 16.5056 2.0632 # Ag
420 420 22 0.00 14.4424 16.5056 2.0632 # Ag
421 421 22 0.00 18.5688 16.5056 2.0632 # Ag
422 422 22 0.00 22.6952 16.5056 2.0632 # Ag
423 423 22 0.00 26.8216 16.5056 2.0632 # Ag
424 424 22 0.00 30.948 16.5056 2.0632 # Ag
425 425 22 0.00 2.0632 20.632 2.0632 # Ag
426 426 22 0.00 6.1896 20.632 2.0632 # Ag
427 427 22 0.00 10.316 20.632 2.0632 # Ag
428 428 22 0.00 14.4424 20.632 2.0632 # Ag
429 429 22 0.00 18.5688 20.632 2.0632 # Ag
430 430 22 0.00 22.6952 20.632 2.0632 # Ag
431 431 22 0.00 26.8216 20.632 2.0632 # Ag
432 432 22 0.00 30.948 20.632 2.0632 # Ag
433 433 22 0.00 2.0632 24.7584 2.0632 # Ag
434 434 22 0.00 6.1896 24.7584 2.0632 # Ag
435 435 22 0.00 10.316 24.7584 2.0632 # Ag
436 436 22 0.00 14.4424 24.7584 2.0632 # Ag
437 437 22 0.00 18.5688 24.7584 2.0632 # Ag
438 438 22 0.00 22.6952 24.7584 2.0632 # Ag
439 439 22 0.00 26.8216 24.7584 2.0632 # Ag
440 440 22 0.00 30.948 24.7584 2.0632 # Ag
441 441 22 0.00 2.0632 28.8848 2.0632 # Ag
442 442 22 0.00 6.1896 28.8848 2.0632 # Ag
443 443 22 0.00 10.316 28.8848 2.0632 # Ag
444 444 22 0.00 14.4424 28.8848 2.0632 # Ag
445 445 22 0.00 18.5688 28.8848 2.0632 # Ag
446 446 22 0.00 22.6952 28.8848 2.0632 # Ag
447 447 22 0.00 26.8216 28.8848 2.0632 # Ag
448 448 22 0.00 30.948 28.8848 2.0632 # Ag
449 449 22 0.00 2.0632 0.0 6.1896 # Ag
450 450 22 0.00 6.1896 0.0 6.1896 # Ag
451 451 22 0.00 10.316 0.0 6.1896 # Ag
452 452 22 0.00 14.4424 0.0 6.1896 # Ag
453 453 22 0.00 18.5688 0.0 6.1896 # Ag
454 454 22 0.00 22.6952 0.0 6.1896 # Ag
455 455 22 0.00 26.8216 0.0 6.1896 # Ag
456 456 22 0.00 30.948 0.0 6.1896 # Ag
457 457 22 0.00 2.0632 4.1264 6.1896 # Ag
458 458 22 0.00 6.1896 4.1264 6.1896 # Ag
459 459 22 0.00 10.316 4.1264 6.1896 # Ag
460 460 22 0.00 14.4424 4.1264 6.1896 # Ag
461 461 22 0.00 18.5688 4.1264 6.1896 # Ag
462 462 22 0.00 22.6952 4.1264 6.1896 # Ag
463 463 22 0.00 26.8216 4.1264 6.1896 # Ag
464 464 22 0.00 30.948 4.1264 6.1896 # Ag
465 465 22 0.00 2.0632 8.2528 6.1896 # Ag
466 466 22 0.00 6.1896 8.2528 6.1896 # Ag
467 467 22 0.00 10.316 8.2528 6.1896 # Ag
468 468 22 0.00 14.4424 8.2528 6.1896 # Ag
469 469 22 0.00 18.5688 8.2528 6.1896 # Ag
470 470 22 0.00 22.6952 8.2528 6.1896 # Ag
471 471 22 0.00 26.8216 8.2528 6.1896 # Ag
472 472 22 0.00 30.948 8.2528 6.1896 # Ag
473 473 22 0.00 2.0632 12.3792 6.1896 # Ag
474 474 22 0.00 6.1896 12.3792 6.1896 # Ag
475 475 22 0.00 10.316 12.3792 6.1896 # Ag
476 476 22 0.00 14.4424 12.3792 6.1896 # Ag
477 477 22 0.00 18.5688 12.3792 6.1896 # Ag
478 478 22 0.00 22.6952 12.3792 6.1896 # Ag
479 479 22 0.00 26.8216 12.3792 6.1896 # Ag
480 480 22 0.00 30.948 12.3792 6.1896 # Ag
481 481 22 0.00 2.0632 16.5056 6.1896 # Ag
482 482 22 0.00 6.1896 16.5056 6.1896 # Ag
483 483 22 0.00 10.316 16.5056 6.1896 # Ag
484 484 22 0.00 14.4424 16.5056 6.1896 # Ag
485 485 22 0.00 18.5688 16.5056 6.1896 # Ag
486 486 22 0.00 22.6952 16.5056 6.1896 # Ag
487 487 22 0.00 26.8216 16.5056 6.1896 # Ag
488 488 22 0.00 30.948 16.5056 6.1896 # Ag
489 489 22 0.00 2.0632 20.632 6.1896 # Ag
490 490 22 0.00 6.1896 20.632 6.1896 # Ag
491 491 22 0.00 10.316 20.632 6.1896 # Ag
492 492 22 0.00 14.4424 20.632 6.1896 # Ag
493 493 22 0.00 18.5688 20.632 6.1896 # Ag
494 494 22 0.00 22.6952 20.632 6.1896 # Ag
495 495 22 0.00 26.8216 20.632 6.1896 # Ag
496 496 22 0.00 30.948 20.632 6.1896 # Ag
497 497 22 0.00 2.0632 24.7584 6.1896 # Ag
498 498 22 0.00 6.1896 24.7584 6.1896 # Ag